 VARIABLES= "x", "y", "z"
 ZONE N= 11474, E=22956 ZONETYPE=FETRIANGLE
 DATAPACKING=POINT
   176.951400800000       -83.5157012900000        93.9605026200000     
   175.942092900000       -84.4150009200000        94.3106994600000     
   176.954895000000       -84.5586013800000        94.3379974400000     
   171.813293500000       -84.4673004200000        94.1530990600000     
   171.570907600000       -85.3682022100000        94.1717987100000     
   172.641494800000       -84.2791976900000        94.1572036700000     
   176.353805500000       -85.3977966300000        94.5047988900000     
   174.993804900000       -85.4661026000000        94.2620010400000     
   177.744796800000       -85.4291992200000        94.3584976200000     
   175.628204300000       -86.3906021100000        94.5054016100000     
   176.699905400000       -86.4281997700000        94.6476974500000     
   177.539001500000       -86.6588974000000        94.5036010700000     
   175.968399000000       -87.2521972700000        94.6461029100000     
   174.941696200000       -87.5585022000000        94.4368972800000     
   176.796600300000       -87.4512023900000        94.6121978800000     
   177.752594000000       -87.5697021500000        94.2599029500000     
   173.868698100000       -88.5143966700000        94.3327026400000     
   174.911499000000       -88.6612014800000        94.4658966100000     
   175.901702900000       -88.3218994100000        94.5378036500000     
   176.948700000000       -88.3044967700000        94.4048996000000     
   172.542007400000       -89.2141037000000        94.3225021400000     
   172.918304400000       -88.5808029200000        94.3032989500000     
   171.947006200000       -88.5929031400000        94.1788024900000     
   171.804092400000       -89.5780029300000        94.2229995700000     
   173.155502300000       -89.2376022300000        94.3572998000000     
   175.527099600000       -89.3078994800000        94.3982009900000     
   176.633194000000       -89.3303985600000        94.1776962300000     
   172.440002400000       -90.1659011800000        94.2707977300000     
   168.445404100000       -92.6025009200000        94.4555969200000     
   170.313293500000       -93.2470016500000        94.4462966900000     
   169.014999400000       -91.6231994600000        94.2297973600000     
   164.886398300000       -93.2669982900000        94.3675994900000     
   165.795105000000       -93.4850006100000        94.5841980000000     
   165.685302700000       -92.6239013700000        94.2981033300000     
   166.628601100000       -93.6863021900000        94.6768035900000     
   166.917007400000       -92.6146011400000        94.4281005900000     
   167.648498500000       -93.4487991300000        94.6327972400000     
   168.840698200000       -93.6564025900000        94.6290969800000     
   164.778595000000       -94.1395034800000        94.5692977900000     
   163.776794400000       -93.4988021900000        94.0859985400000     
   163.965805100000       -94.5960006700000        94.4121017500000     
   165.751297000000       -94.4417038000000        94.7347030600000     
   166.823394800000       -94.5543975800000        94.6541976900000     
   167.937194800000       -94.2195968600000        94.6240005500000     
   168.674804700000       -94.4694976800000        94.5544967700000     
   169.738403300000       -94.2837982200000        94.5565033000000     
   170.554595900000       -94.2857971200000        94.5113983200000     
   171.074600200000       -94.4285965000000        94.2726974500000     
   171.584106400000       -93.8722991900000        94.2712020900000     
   171.573700000000       -93.1906967200000        94.3299026500000     
   172.424301100000       -93.4590988200000        94.0315017700000     
   164.848999000000       -95.0325012200000        94.6287994400000     
   163.921997100000       -95.5466003400000        94.3126983600000     
   165.757995600000       -95.1733017000000        94.6736984300000     
   166.312103300000       -95.6325988800000        94.3834991500000     
   167.779495200000       -95.2725982700000        94.1912994400000     
   169.174606300000       -95.0328979500000        94.2085037200000     
   170.305099500000       -94.8387985200000        94.2677002000000     
   165.134094200000       -95.7710037200000        94.4501037600000     
   177.758895900000       -80.1580963100000        93.2785034200000     
   176.895004300000       -80.4256973300000        93.3472976700000     
   177.559692400000       -80.6843032800000        93.4079971300000     
   178.547302200000       -80.2636032100000        93.0814971900000     
   174.719192500000       -81.1370010400000        93.4922027600000     
   175.741500900000       -81.3656005900000        93.6697998000000     
   175.761398300000       -80.3798980700000        93.2239990200000     
   176.753997800000       -81.5733032200000        93.6586990400000     
   177.812393200000       -81.4037017800000        93.3118972800000     
   174.704498300000       -82.2994003300000        93.9132003800000     
   173.508804300000       -82.0733032200000        93.6483993500000     
   175.694397000000       -82.4458999600000        94.0027008100000     
   176.446899400000       -82.6363983200000        93.9261016800000     
   177.252700800000       -82.4037017800000        93.5656967200000     
   170.811294600000       -83.5127029400000        93.5300979600000     
   171.847000100000       -83.7878036500000        93.9208984400000     
   172.030105600000       -82.6828002900000        93.5132980300000     
   172.769699100000       -83.2089996300000        93.8920974700000     
   173.717102100000       -83.3021011400000        94.0683975200000     
   174.748199500000       -83.4166030900000        94.1780014000000     
   175.740707400000       -83.4514007600000        94.1697006200000     
   177.978393600000       -83.5460968000000        93.6034011800000     
   177.759506200000       -83.0175018300000        93.4366989100000     
   170.876602200000       -84.6292038000000        93.9820022600000     
   169.653106700000       -84.2816009500000        93.5671997100000     
   173.744094800000       -84.4037017800000        94.1965026900000     
   174.803100600000       -84.4011001600000        94.2285995500000     
   177.848800700000       -84.2033004800000        94.0093002300000     
   178.815902700000       -84.5240020800000        93.8809967000000     
   178.648498500000       -83.8087005600000        93.5802993800000     
   179.668396000000       -84.7555999800000        93.7082977300000     
   179.801696800000       -83.7237014800000        93.2916030900000     
   180.159301800000       -84.4972991900000        93.4600982700000     
   168.680603000000       -85.2209014900000        93.6458969100000     
   168.778503400000       -84.3880996700000        93.4212036100000     
   167.794006300000       -84.4840011600000        93.1392974900000     
   167.505294800000       -85.9551010100000        93.4546966600000     
   169.613906900000       -85.3783035300000        93.9111022900000     
   170.050399800000       -86.0226974500000        94.0902023300000     
   172.737701400000       -85.3675994900000        94.1364975000000     
   173.777206400000       -85.3805999800000        94.1046981800000     
   179.057296800000       -85.4354019200000        93.9714965800000     
   179.707901000000       -85.3733978300000        93.7501983600000     
   180.203002900000       -85.1376037600000        93.4887008700000     
   168.267807000000       -86.7475967400000        93.8464965800000     
   170.233093300000       -87.0559005700000        94.1112976100000     
   171.712707500000       -86.4375000000000        94.0747985800000     
   172.771392800000       -86.3960037200000        94.0194015500000     
   173.809692400000       -86.3806991600000        94.0594024700000     
   174.661804200000       -86.5389022800000        94.2363967900000     
   178.487594600000       -86.5035018900000        94.0976028400000     
   179.742492700000       -86.2397003200000        93.5231018100000     
   166.756500200000       -87.2017974900000        93.4401016200000     
   166.897506700000       -88.0792007400000        93.6768035900000     
   168.985900900000       -87.3374023400000        94.0663986200000     
   170.772705100000       -87.5739975000000        94.0429992700000     
   171.803802500000       -87.4452972400000        94.0381012000000     
   172.968002300000       -87.5652008100000        94.1151962300000     
   173.992401100000       -87.2789993300000        94.1775970500000     
   178.783996600000       -87.9875030500000        93.5531005900000     
   165.845596300000       -88.5169982900000        93.3522033700000     
   167.735794100000       -88.3290023800000        93.9322967500000     
   168.729095500000       -88.3003997800000        94.0603027300000     
   169.351196300000       -88.7606964100000        94.0431976300000     
   170.692398100000       -88.5299987800000        94.0543975800000     
   177.634094200000       -88.5692977900000        94.0317001300000     
   166.609497100000       -89.2707977300000        93.7393035900000     
   165.682601900000       -90.2426986700000        93.6380996700000     
   167.735900900000       -89.4101028400000        93.9608001700000     
   169.645904500000       -89.5428009000000        94.0410003700000     
   170.780593900000       -89.4849014300000        94.1063003500000     
   173.656906100000       -90.0502014200000        94.3078994800000     
   174.683807400000       -89.5531005900000        94.3531036400000     
   177.804397600000       -89.4381027200000        93.6112976100000     
   166.712799100000       -90.3087005600000        93.8676986700000     
   168.119003300000       -90.4574966400000        94.0360031100000     
   169.706604000000       -90.4761962900000        94.0886993400000     
   171.068100000000       -90.4301986700000        94.1499023400000     
   174.574493400000       -90.5353012100000        94.2297973600000     
   175.714492800000       -90.4448013300000        94.0495986900000     
   176.956298800000       -90.3050994900000        93.6996994000000     
   164.687698400000       -89.8498992900000        93.2349014300000     
   164.865295400000       -91.2637023900000        93.6633987400000     
   166.192794800000       -91.4746017500000        94.0062027000000     
   167.684402500000       -91.6725006100000        94.2163009600000     
   170.370697000000       -91.5878982500000        94.2081985500000     
   171.608703600000       -91.4180984500000        94.2105026200000     
   172.793701200000       -91.3436965900000        94.2298965500000     
   173.896804800000       -91.4904022200000        94.1249008200000     
   174.908294700000       -91.2932968100000        94.0074005100000     
   175.625701900000       -91.5939025900000        93.6679992700000     
   176.786407500000       -91.3785018900000        93.2565994300000     
   164.722793600000       -92.3685989400000        93.9890976000000     
   163.507995600000       -91.7520980800000        93.3533020000000     
   171.158599900000       -92.4327011100000        94.3030014000000     
   172.085998500000       -92.4427032500000        94.2360000600000     
   173.061798100000       -92.4475021400000        94.0874023400000     
   173.766799900000       -92.4199981700000        93.9359970100000     
   174.662994400000       -92.3147964500000        93.6783981300000     
   162.358795200000       -93.3923034700000        93.4529037500000     
   173.629898100000       -93.2689971900000        93.6211013800000     
   162.735504200000       -94.6520996100000        93.9207000700000     
   161.272598300000       -94.2956008900000        93.2325973500000     
   171.937805200000       -94.5034027100000        93.8115005500000     
   172.897705100000       -94.0939025900000        93.5148010300000     
   161.104995700000       -95.5146026600000        93.2550964400000     
   162.720993000000       -95.9697036700000        93.9197006200000     
   168.779205300000       -95.8215026900000        93.5313034100000     
   169.752197300000       -95.4794998200000        93.7570037800000     
   170.789398200000       -95.3370971700000        93.7116012600000     
   171.784805300000       -95.4498977700000        93.3598022500000     
   161.782592800000       -96.7517013500000        93.5523986800000     
   163.552200300000       -96.4978027300000        94.0814971900000     
   164.439498900000       -96.5195999100000        94.1691970800000     
   165.533096300000       -96.5319976800000        94.1185989400000     
   166.839904800000       -96.5373001100000        93.7453002900000     
   167.918304400000       -96.1522979700000        93.4220962500000     
   162.722106900000       -97.2114028900000        93.8261032100000     
   163.693893400000       -97.4377975500000        93.9567031900000     
   164.682998700000       -97.4654007000000        93.9779968300000     
   165.722198500000       -97.5054016100000        93.8550033600000     
   166.559799200000       -97.7315979000000        93.5938034100000     
   167.206802400000       -97.2947006200000        93.2808990500000     
   161.334396400000       -98.0858993500000        93.4248962400000     
   162.668594400000       -98.3725967400000        93.7557983400000     
   163.761200000000       -98.4800033600000        93.8703994800000     
   164.809295700000       -98.4701004000000        93.8598022500000     
   165.866394000000       -98.6426010100000        93.6490020800000     
   166.548599200000       -98.3751983600000        93.5534973100000     
   167.092804000000       -98.2064971900000        93.2258987400000     
   161.538894700000       -99.3245010400000        93.5255966200000     
   162.734893800000       -99.4186019900000        93.7235031100000     
   163.920700100000       -99.5562973000000        93.7158966100000     
   164.947799700000       -99.2595977800000        93.7004013100000     
   165.500106800000       -99.5734024000000        93.4052963300000     
   166.228897100000       -99.4595031700000        93.1634979200000     
   166.561492900000       -98.8151016200000        93.3790969800000     
   160.858505200000       -100.440002400000        93.2174987800000     
   161.914993300000       -100.095298800000        93.5335006700000     
   162.871307400000       -100.487800600000        93.4822998000000     
   163.901901200000       -100.479400600000        93.4119033800000     
   164.741302500000       -100.039299000000        93.4058990500000     
   161.864700300000       -100.808296200000        93.2970962500000     
   171.885299700000       -78.0867996200000        92.4337997400000     
   171.426605200000       -78.5796966600000        92.4203033400000     
   171.993392900000       -78.5586013800000        92.6965026900000     
   172.727996800000       -78.6333999600000        92.8550033600000     
   172.491500900000       -77.9261016800000        92.4509964000000     
   173.712005600000       -78.5927963300000        92.8657989500000     
   173.478195200000       -77.8937988300000        92.4662017800000     
   174.468704200000       -78.7129974400000        92.7647018400000     
   174.535400400000       -78.0001983600000        92.2608032200000     
   175.238006600000       -78.5381012000000        92.3767013500000     
   171.690002400000       -79.8407974200000        92.8897018400000     
   170.604400600000       -79.3275985700000        92.2046966600000     
   172.940704300000       -79.3721008300000        93.1080017100000     
   173.772506700000       -79.4597015400000        93.0930023200000     
   174.813201900000       -79.3889007600000        92.8582000700000     
   175.748703000000       -79.5730972300000        92.7766037000000     
   175.705307000000       -78.9669036900000        92.4567031900000     
   176.766494800000       -79.6412963900000        92.8264999400000     
   176.652694700000       -78.9502029400000        92.1968002300000     
   177.906799300000       -79.6533966100000        92.9123992900000     
   177.596206700000       -79.1467971800000        92.3753967300000     
   178.873794600000       -79.4670028700000        92.7292022700000     
   178.522201500000       -79.0799026500000        92.2823028600000     
   179.461807300000       -79.6465988200000        92.7188034100000     
   179.406906100000       -79.1436996500000        92.2593002300000     
   180.140594500000       -79.4756012000000        92.3369979900000     
   170.462493900000       -80.5357971200000        92.4964981100000     
   172.763198900000       -80.3986969000000        93.2211990400000     
   173.860199000000       -80.5715026900000        93.2661972000000     
   174.930603000000       -80.2008972200000        93.1185989400000     
   179.798294100000       -80.3806991600000        92.7664032000000     
   180.636001600000       -80.9527969400000        92.6524963400000     
   180.790496800000       -80.0736999500000        92.4300994900000     
   181.160797100000       -80.5966033900000        92.4506988500000     
   170.850402800000       -81.2690963700000        92.8571014400000     
   169.776306200000       -81.5547027600000        92.3526001000000     
   171.734893800000       -81.3827972400000        93.1624984700000     
   172.634002700000       -81.5651016200000        93.3515014600000     
   178.816604600000       -81.3481979400000        92.9787979100000     
   179.744201700000       -81.5988998400000        92.8183975200000     
   180.609497100000       -82.3386001600000        92.7639007600000     
   181.353195200000       -81.4024963400000        92.4119033800000     
   170.742004400000       -82.3771972700000        93.0413970900000     
   169.455596900000       -82.4800033600000        92.5369033800000     
   171.799194300000       -82.1089019800000        93.2717971800000     
   178.151702900000       -82.2932968100000        93.1529998800000     
   178.957901000000       -82.2172012300000        92.9244003300000     
   179.565094000000       -82.5969009400000        92.9462966900000     
   181.851104700000       -82.7693023700000        92.1897964500000     
   167.957107500000       -83.4050979600000        92.6112976100000     
   168.757904100000       -83.7285995500000        93.0560989400000     
   168.661804200000       -82.9132995600000        92.4822998000000     
   169.656906100000       -83.2291030900000        93.0298004200000     
   178.684799200000       -83.0751037600000        93.1931991600000     
   180.999496500000       -83.5442962600000        92.8207016000000     
   165.773101800000       -83.3621978800000        92.0281982400000     
   164.805603000000       -84.5376968400000        92.2273025500000     
   165.936294600000       -84.2712020900000        92.5873031600000     
   166.613800000000       -84.5807037400000        92.8882980300000     
   166.925796500000       -83.5522003200000        92.4562988300000     
   180.697494500000       -84.4742965700000        93.1327972400000     
   181.706100500000       -84.3792038000000        92.4343032800000     
   165.520706200000       -85.4356994600000        92.7250976600000     
   164.552902200000       -85.6223983800000        92.4161987300000     
   166.473098800000       -86.4147033700000        93.1607971200000     
   180.897598300000       -85.5752029400000        92.9412002600000     
   181.796203600000       -85.5838012700000        92.1969986000000     
   164.619201700000       -86.4313964800000        92.5119018600000     
   165.203094500000       -87.3641967800000        92.8645019500000     
   180.559295700000       -86.6283035300000        92.9198989900000     
   181.329895000000       -86.5225982700000        92.3363037100000     
   165.973007200000       -87.3611984300000        93.1359024000000     
   180.045196500000       -87.5143966700000        92.9590988200000     
   180.847702000000       -87.3093032800000        92.4644012500000     
   163.917099000000       -87.3930969200000        92.3632965100000     
   163.165603600000       -89.2673034700000        92.4979019200000     
   179.691894500000       -88.7454986600000        92.7932968100000     
   180.726806600000       -88.3367004400000        92.1896972700000     
   178.798400900000       -89.5216980000000        93.0257034300000     
   179.524704000000       -89.7485961900000        92.5771026600000     
   180.255004900000       -89.4636993400000        92.1890029900000     
   177.918502800000       -90.5170974700000        93.0996017500000     
   179.002197300000       -90.5714035000000        92.4728012100000     
   179.834503200000       -90.3505020100000        92.0906982400000     
   162.271606400000       -91.1840972900000        92.6556015000000     
   178.226593000000       -91.5578002900000        92.3719024700000     
   162.037796000000       -92.4192962600000        92.9452972400000     
   175.880996700000       -92.5382995600000        93.1074981700000     
   177.198303200000       -92.7183990500000        92.3366012600000     
   159.817306500000       -93.2429962200000        92.3078994800000     
   160.913604700000       -93.3899993900000        92.8018035900000     
   160.830902100000       -92.0317993200000        92.3785018900000     
   174.827896100000       -93.5182037400000        93.0574035600000     
   175.975997900000       -94.0667038000000        92.3302002000000     
   159.365905800000       -94.4626007100000        92.3636016800000     
   172.657196000000       -94.7854003900000        93.2829971300000     
   173.712707500000       -94.4655990600000        93.0239028900000     
   174.773407000000       -94.5921020500000        92.6064987200000     
   172.907104500000       -95.6221008300000        92.9452972400000     
   174.062606800000       -95.3504028300000        92.5819015500000     
   160.361206100000       -97.0239028900000        92.9880981400000     
   167.671600300000       -96.7499008200000        93.1505966200000     
   168.452301000000       -96.6417007400000        92.9884033200000     
   169.582199100000       -96.3591003400000        93.1542968800000     
   170.729202300000       -96.3694000200000        93.2017974900000     
   171.759002700000       -96.4540023800000        93.1212997400000     
   172.681106600000       -96.7414016700000        92.8374023400000     
   173.837905900000       -96.3769989000000        92.2822036700000     
   158.936996500000       -96.1167984000000        92.3050003100000     
   158.411499000000       -98.0382995600000        92.3413009600000     
   167.844802900000       -97.4498977700000        92.9271011400000     
   168.709198000000       -97.4624023400000        92.7909011800000     
   169.726501500000       -97.4380035400000        92.8970031700000     
   170.790405300000       -97.4076004000000        93.0178985600000     
   171.865905800000       -97.5037994400000        92.8973999000000     
   172.604400600000       -97.3806991600000        92.7332992600000     
   173.232406600000       -97.4259033200000        92.1845016500000     
   159.822601300000       -98.3186035200000        92.9393997200000     
   167.838394200000       -98.4077987700000        92.8267974900000     
   168.740005500000       -98.4904022200000        92.7500991800000     
   169.908294700000       -98.6351013200000        92.8050003100000     
   171.001403800000       -98.2123031600000        92.8375015300000     
   171.748199500000       -98.5233001700000        92.4332962000000     
   172.561996500000       -98.0015029900000        92.3257980300000     
   158.774902300000       -99.3734970100000        92.7285003700000     
   157.743804900000       -99.5223999000000        92.3958969100000     
   160.063507100000       -99.5176010100000        93.1335983300000     
   167.011795000000       -99.1222000100000        92.9709014900000     
   167.718002300000       -99.4922027600000        92.6902008100000     
   168.745101900000       -99.5199966400000        92.7501983600000     
   169.520294200000       -99.7184982300000        92.6959991500000     
   170.225799600000       -99.5205993700000        92.5791015600000     
   170.878494300000       -99.0213012700000        92.5550994900000     
   157.891601600000       -100.462402300000        92.5011978100000     
   156.884002700000       -100.553596500000        92.1276016200000     
   158.889007600000       -100.806999200000        92.7138977100000     
   159.837402300000       -100.531601000000        93.0091018700000     
   164.550796500000       -100.768203700000        93.1330032300000     
   165.728607200000       -100.470802300000        92.8883972200000     
   166.731796300000       -99.9442977900000        92.6834030200000     
   167.217407200000       -100.417099000000        92.5315017700000     
   168.016006500000       -100.263496400000        92.6638031000000     
   168.816696200000       -100.601303100000        92.6467971800000     
   169.998092700000       -100.497398400000        92.2397995000000     
   157.287094100000       -101.915496800000        92.0671997100000     
   159.991592400000       -101.497802700000        92.7580032300000     
   161.276596100000       -101.490097000000        92.9392013500000     
   162.397506700000       -101.512901300000        93.0933990500000     
   163.615295400000       -101.352897600000        93.1491012600000     
   164.759994500000       -101.484001200000        92.9552993800000     
   165.783294700000       -101.586402900000        92.7804031400000     
   166.788299600000       -101.848098800000        92.6100006100000     
   166.636703500000       -100.988296500000        92.5858001700000     
   167.710403400000       -101.132698100000        92.6026001000000     
   168.497100800000       -101.486396800000        92.5469970700000     
   169.136596700000       -101.398101800000        92.2535018900000     
   158.781494100000       -102.323097200000        92.3731002800000     
   159.763702400000       -102.747802700000        92.4347991900000     
   160.699401900000       -102.278099100000        92.6298980700000     
   161.687194800000       -102.420303300000        92.7776031500000     
   162.907302900000       -102.437202500000        92.9592971800000     
   163.972503700000       -102.280296300000        93.0037002600000     
   164.955200200000       -102.616500900000        92.8538970900000     
   165.947006200000       -102.276298500000        92.7191009500000     
   166.449203500000       -102.444198600000        92.5429000900000     
   167.051696800000       -102.406097400000        92.2362976100000     
   167.917007400000       -101.973800700000        92.2882995600000     
   168.644104000000       -101.844299300000        92.2619018600000     
   160.675003100000       -103.329299900000        92.5048980700000     
   162.080093400000       -103.435997000000        92.7621994000000     
   163.728103600000       -103.548797600000        92.8715972900000     
   164.638702400000       -103.415603600000        92.8579025300000     
   165.142105100000       -103.389198300000        92.5630035400000     
   165.914505000000       -102.924598700000        92.2764968900000     
   166.557693500000       -102.672500600000        92.2534027100000     
   161.243103000000       -104.436897300000        92.4636993400000     
   159.850296000000       -104.616798400000        92.2694015500000     
   162.525405900000       -104.444099400000        92.6821975700000     
   163.498794600000       -104.578002900000        92.6705017100000     
   164.207702600000       -104.506500200000        92.2227020300000     
   164.739196800000       -103.926902800000        92.5106964100000     
   161.843200700000       -105.585601800000        92.1986007700000     
   162.958801300000       -105.286598200000        92.1863021900000     
   163.671600300000       -105.045700100000        92.1690979000000     
   158.849395800000       -108.042900100000        92.4906005900000     
   157.961807300000       -108.478202800000        91.9996032700000     
   158.787002600000       -108.448402400000        92.4655990600000     
   159.447601300000       -108.160003700000        92.5391998300000     
   159.462295500000       -107.523300200000        92.5261001600000     
   159.049194300000       -108.750297500000        92.1697998000000     
   146.706100500000       -120.492599500000        92.5851974500000     
   146.569900500000       -119.630699200000        92.3301010100000     
   145.846801800000       -120.261802700000        92.4645004300000     
   147.703796400000       -120.757896400000        92.5979003900000     
   147.716201800000       -119.583900500000        92.2901992800000     
   148.709396400000       -120.234497100000        92.3567962600000     
   145.573104900000       -121.358398400000        92.4297027600000     
   146.873596200000       -121.585899400000        92.5944976800000     
   147.660095200000       -121.484497100000        92.6065979000000     
   148.364593500000       -121.364303600000        92.4356994600000     
   146.029693600000       -122.478797900000        92.3265991200000     
   146.765106200000       -122.425201400000        92.4185028100000     
   147.571502700000       -122.308799700000        92.3538970900000     
   171.818405200000       -77.2172012300000        91.3200988800000     
   171.251205400000       -77.4608001700000        91.3911972000000     
   171.887802100000       -77.6504974400000        91.9321975700000     
   173.029296900000       -77.4302978500000        91.9394989000000     