 VARIABLES = "x", "y", "z"
 ZONE N=       11474 , E=       22956 , ZONETYPE=FETRIANGLE
 DATAPACKING=POINT
    -3.157612E-01     5.743280E-01    -2.932411E+00
    -3.102296E-01     5.992058E-01    -2.882102E+00
    -2.804151E-01     5.869004E-01    -2.907938E+00
    -4.129263E-01     6.464931E-01    -2.759361E+00
    -3.915101E-01     6.487795E-01    -2.728438E+00
    -3.979708E-01     6.362646E-01    -2.788484E+00
    -2.683413E-01     5.995935E-01    -2.869514E+00
    -3.024928E-01     6.077857E-01    -2.826075E+00
    -2.342123E-01     5.759567E-01    -2.907838E+00
    -2.563447E-01     6.072786E-01    -2.821940E+00
    -2.271463E-01     5.987905E-01    -2.853308E+00
    -2.006970E-01     5.820302E-01    -2.870294E+00
    -2.204269E-01     6.067609E-01    -2.810048E+00
    -2.387534E-01     6.115131E-01    -2.770234E+00
    -1.941285E-01     5.944079E-01    -2.828514E+00
    -1.702053E-01     5.683734E-01    -2.850095E+00
    -2.375446E-01     6.197502E-01    -2.712646E+00
    -2.058494E-01     6.110985E-01    -2.740181E+00
    -1.907745E-01     6.016283E-01    -2.778631E+00
    -1.665508E-01     5.830373E-01    -2.808376E+00
    -2.494807E-01     6.353055E-01    -2.655332E+00
    -2.594713E-01     6.308035E-01    -2.683001E+00
    -2.844930E-01     6.385871E-01    -2.653378E+00
    -2.578039E-01     6.404152E-01    -2.623319E+00
    -2.331633E-01     6.286597E-01    -2.672833E+00
    -1.716235E-01     5.994270E-01    -2.740230E+00
    -1.455797E-01     5.766545E-01    -2.769872E+00
    -2.237208E-01     6.329971E-01    -2.626523E+00
    -2.475676E-01     6.874974E-01    -2.447011E+00
    -1.816758E-01     6.618645E-01    -2.484014E+00
    -2.652431E-01     6.731999E-01    -2.487749E+00
    -3.168774E-01     7.290129E-01    -2.325093E+00
    -2.855473E-01     7.251596E-01    -2.347551E+00
    -3.171415E-01     7.171399E-01    -2.364871E+00
    -2.578086E-01     7.175692E-01    -2.367200E+00
    -2.855014E-01     7.061936E-01    -2.402035E+00
    -2.400494E-01     7.031083E-01    -2.402797E+00
    -2.041377E-01     6.871868E-01    -2.431871E+00
    -2.911794E-01     7.366018E-01    -2.300417E+00
    -3.402305E-01     7.321998E-01    -2.284233E+00
    -2.991284E-01     7.403144E-01    -2.263260E+00
    -2.562102E-01     7.298182E-01    -2.322046E+00
    -2.269116E-01     7.126794E-01    -2.349501E+00
    -2.096251E-01     6.977006E-01    -2.390542E+00
    -1.843894E-01     6.850704E-01    -2.404710E+00
    -1.635243E-01     6.717129E-01    -2.440591E+00
    -1.435966E-01     6.594290E-01    -2.463868E+00
    -1.286739E-01     6.433328E-01    -2.473111E+00
    -1.328460E-01     6.376510E-01    -2.502749E+00
    -1.531575E-01     6.412118E-01    -2.521141E+00
    -1.267923E-01     6.183401E-01    -2.536125E+00
    -2.618197E-01     7.364157E-01    -2.279147E+00
    -2.724238E-01     7.354324E-01    -2.235763E+00
    -2.345005E-01     7.261305E-01    -2.302193E+00
    -2.096554E-01     7.070758E-01    -2.303537E+00
    -1.859201E-01     6.813758E-01    -2.354129E+00
    -1.582915E-01     6.644050E-01    -2.401217E+00
    -1.354560E-01     6.523826E-01    -2.439759E+00
    -2.341265E-01     7.246173E-01    -2.266184E+00
    -4.039607E-01     5.436452E-01    -3.039593E+00
    -4.166844E-01     5.569835E-01    -3.007940E+00
    -3.917243E-01     5.502576E-01    -3.020879E+00
    -3.830797E-01     5.257357E-01    -3.057990E+00
    -4.478788E-01     5.894290E-01    -2.926978E+00
    -4.137833E-01     5.825974E-01    -2.952118E+00
    -4.474853E-01     5.670126E-01    -2.975156E+00
    -3.824126E-01     5.687172E-01    -2.975904E+00
    -3.646064E-01     5.420681E-01    -3.008197E+00
    -4.089428E-01     6.036919E-01    -2.899163E+00
    -4.481310E-01     6.094289E-01    -2.868165E+00
    -3.790012E-01     5.940551E-01    -2.924793E+00
    -3.552621E-01     5.810642E-01    -2.940917E+00
    -3.457838E-01     5.572717E-01    -2.967436E+00
    -4.728502E-01     6.372991E-01    -2.750344E+00
    -4.349257E-01     6.383619E-01    -2.776471E+00
    -4.678030E-01     6.223332E-01    -2.807764E+00
    -4.297651E-01     6.263315E-01    -2.818482E+00
    -4.016467E-01     6.206542E-01    -2.845050E+00
    -3.714515E-01     6.113084E-01    -2.872904E+00
    -3.457834E-01     5.980938E-01    -2.900747E+00
    -2.927847E-01     5.473443E-01    -2.958365E+00
    -3.158610E-01     5.447215E-01    -2.964672E+00
    -4.330098E-01     6.517882E-01    -2.726345E+00
    -4.780363E-01     6.523627E-01    -2.696488E+00
    -3.663823E-01     6.232896E-01    -2.817543E+00
    -3.397957E-01     6.108237E-01    -2.848665E+00
    -2.721444E-01     5.633929E-01    -2.940562E+00
    -2.396315E-01     5.454245E-01    -2.959002E+00
    -2.683896E-01     5.373387E-01    -2.970632E+00
    -2.131018E-01     5.273962E-01    -2.976107E+00
    -2.450950E-01     5.115373E-01    -3.003924E+00
    -2.111348E-01     5.120093E-01    -2.995126E+00
    -4.730377E-01     6.663187E-01    -2.643840E+00
    -4.980058E-01     6.579102E-01    -2.666971E+00
    -5.223617E-01     6.597031E-01    -2.633371E+00
    -4.819360E-01     6.729386E-01    -2.588444E+00
    -4.424534E-01     6.641101E-01    -2.669049E+00
    -4.103365E-01     6.641913E-01    -2.666083E+00
    -3.628411E-01     6.323402E-01    -2.762058E+00
    -3.368934E-01     6.176575E-01    -2.791645E+00
    -2.051566E-01     5.441796E-01    -2.942477E+00
    -1.930118E-01     5.274146E-01    -2.961131E+00
    -1.903895E-01     5.114261E-01    -2.979556E+00
    -4.351415E-01     6.766752E-01    -2.592834E+00
    -3.743158E-01     6.608418E-01    -2.644003E+00
    -3.565713E-01     6.413828E-01    -2.703189E+00
    -3.320268E-01     6.256447E-01    -2.734585E+00
    -3.062624E-01     6.137708E-01    -2.765512E+00
    -2.785382E-01     6.092396E-01    -2.787579E+00
    -1.857729E-01     5.545142E-01    -2.898507E+00
    -1.681583E-01     5.167847E-01    -2.937060E+00
    -4.629819E-01     6.799023E-01    -2.533290E+00
    -4.306017E-01     6.856024E-01    -2.516016E+00
    -3.972700E-01     6.747683E-01    -2.599860E+00
    -3.458785E-01     6.503532E-01    -2.645270E+00
    -3.241648E-01     6.370532E-01    -2.678627E+00
    -2.908126E-01     6.247340E-01    -2.709924E+00
    -2.733729E-01     6.143661E-01    -2.747869E+00
    -1.388202E-01     5.272954E-01    -2.862825E+00
    -4.467063E-01     6.860422E-01    -2.470965E+00
    -3.996805E-01     6.840912E-01    -2.535914E+00
    -3.745762E-01     6.761858E-01    -2.566647E+00
    -3.453341E-01     6.666872E-01    -2.572295E+00
    -3.188333E-01     6.501686E-01    -2.617524E+00
    -1.451380E-01     5.594499E-01    -2.818010E+00
    -4.010943E-01     6.896484E-01    -2.476387E+00
    -3.957363E-01     6.960824E-01    -2.422644E+00
    -3.666810E-01     6.833032E-01    -2.507314E+00
    -3.143534E-01     6.614343E-01    -2.559971E+00
    -2.872319E-01     6.493545E-01    -2.595053E+00
    -1.965789E-01     6.188766E-01    -2.665294E+00
    -1.856280E-01     6.081850E-01    -2.708792E+00
    -1.187253E-01     5.396724E-01    -2.796150E+00
    -3.658559E-01     6.914184E-01    -2.452800E+00
    -3.247141E-01     6.794049E-01    -2.491146E+00
    -2.841282E-01     6.608525E-01    -2.537238E+00
    -2.510431E-01     6.456620E-01    -2.578559E+00
    -1.598312E-01     6.031819E-01    -2.678342E+00
    -1.359687E-01     5.817074E-01    -2.712332E+00
    -1.127242E-01     5.525158E-01    -2.749130E+00
    -4.363289E-01     6.942223E-01    -2.400736E+00
    -3.849264E-01     7.058485E-01    -2.371865E+00
    -3.421544E-01     7.014143E-01    -2.407771E+00
    -2.969922E-01     6.898083E-01    -2.447649E+00
    -2.327896E-01     6.549013E-01    -2.527902E+00
    -2.071007E-01     6.392717E-01    -2.568430E+00
    -1.796764E-01     6.248154E-01    -2.605020E+00
    -1.488168E-01     6.062807E-01    -2.632257E+00
    -1.307642E-01     5.890495E-01    -2.665898E+00
    -1.071402E-01     5.662776E-01    -2.675798E+00
    -8.880700E-02     5.359158E-01    -2.711729E+00
    -3.518443E-01     7.182221E-01    -2.341048E+00
    -4.069566E-01     7.107047E-01    -2.316714E+00
    -1.866893E-01     6.468679E-01    -2.529073E+00
    -1.639667E-01     6.322950E-01    -2.555179E+00
    -1.409964E-01     6.139866E-01    -2.582127E+00
    -1.257694E-01     5.991294E-01    -2.602044E+00
    -1.091765E-01     5.778756E-01    -2.628674E+00
    -3.849382E-01     7.265288E-01    -2.240408E+00
    -1.065667E-01     5.873920E-01    -2.572694E+00
    -3.328571E-01     7.373489E-01    -2.221772E+00
    -3.867869E-01     7.305903E-01    -2.182839E+00
    -1.094485E-01     6.144121E-01    -2.492223E+00
    -1.008625E-01     5.913680E-01    -2.528487E+00
    -3.538459E-01     7.315027E-01    -2.145633E+00
    -2.933529E-01     7.352121E-01    -2.186182E+00
    -1.508975E-01     6.422691E-01    -2.362843E+00
    -1.348262E-01     6.389039E-01    -2.402191E+00
    -1.137721E-01     6.240008E-01    -2.435741E+00
    -8.903577E-02     5.974853E-01    -2.458625E+00
    -2.966347E-01     7.319545E-01    -2.134876E+00
    -2.551035E-01     7.297286E-01    -2.197640E+00
    -2.315064E-01     7.215663E-01    -2.223600E+00
    -2.044151E-01     7.054665E-01    -2.254614E+00
    -1.753941E-01     6.742883E-01    -2.289230E+00
    -1.633777E-01     6.486561E-01    -2.328056E+00
    -2.566641E-01     7.294658E-01    -2.152272E+00
    -2.243527E-01     7.214953E-01    -2.175598E+00
    -1.986972E-01     7.094683E-01    -2.203789E+00
    -1.728332E-01     6.912574E-01    -2.231861E+00
    -1.477044E-01     6.700487E-01    -2.247914E+00
    -1.478920E-01     6.504798E-01    -2.275676E+00
    -2.686587E-01     7.305633E-01    -2.085149E+00
    -2.235427E-01     7.254560E-01    -2.119125E+00
    -1.919827E-01     7.155179E-01    -2.148999E+00
    -1.663067E-01     7.015741E-01    -2.179630E+00
    -1.368476E-01     6.795459E-01    -2.203929E+00
    -1.289004E-01     6.675363E-01    -2.230066E+00
    -1.236733E-01     6.482700E-01    -2.247558E+00
    -2.250997E-01     7.296176E-01    -2.058909E+00
    -1.905538E-01     7.215491E-01    -2.092861E+00
    -1.569551E-01     7.056824E-01    -2.123581E+00
    -1.405289E-01     6.923207E-01    -2.161213E+00
    -1.201797E-01     6.733542E-01    -2.166345E+00
    -1.078608E-01     6.548846E-01    -2.188478E+00
    -1.169749E-01     6.599409E-01    -2.217199E+00
    -2.112887E-01     7.247070E-01    -2.006713E+00
    -1.923371E-01     7.237178E-01    -2.049338E+00
    -1.571645E-01     7.087110E-01    -2.066214E+00
    -1.324642E-01     6.927056E-01    -2.095781E+00
    -1.249554E-01     6.823831E-01    -2.131866E+00
    -1.743264E-01     7.140960E-01    -2.026812E+00
    -6.210698E-01     5.909245E-01    -2.916891E+00
    -6.176989E-01     5.954860E-01    -2.890291E+00
    -6.015287E-01     5.987478E-01    -2.909707E+00
    -5.794337E-01     5.951744E-01    -2.930426E+00
    -6.106807E-01     5.840200E-01    -2.938944E+00
    -5.560719E-01     5.829304E-01    -2.960199E+00
    -5.869577E-01     5.718954E-01    -2.968611E+00
    -5.345957E-01     5.690710E-01    -2.978109E+00
    -5.594434E-01     5.501870E-01    -2.994723E+00
    -5.245467E-01     5.445956E-01    -3.001787E+00
    -5.683821E-01     6.078307E-01    -2.868341E+00
    -6.176354E-01     5.965823E-01    -2.844581E+00
    -5.493073E-01     6.008107E-01    -2.919077E+00
    -5.261056E-01     5.893270E-01    -2.940783E+00
    -5.046528E-01     5.670158E-01    -2.970891E+00
    -4.765998E-01     5.514780E-01    -2.992458E+00
    -4.991584E-01     5.408651E-01    -3.004615E+00
    -4.487218E-01     5.401027E-01    -3.020646E+00
    -4.786360E-01     5.187075E-01    -3.030351E+00
    -4.191403E-01     5.286161E-01    -3.054202E+00
    -4.474599E-01     5.129888E-01    -3.054064E+00
    -4.025141E-01     5.094310E-01    -3.085698E+00
    -4.273549E-01     4.975703E-01    -3.081956E+00
    -3.825494E-01     5.011166E-01    -3.097904E+00
    -4.036357E-01     4.851378E-01    -3.105765E+00
    -3.745740E-01     4.780419E-01    -3.118900E+00
    -5.817442E-01     6.074734E-01    -2.810733E+00
    -5.215472E-01     6.056514E-01    -2.887500E+00
    -4.885804E-01     5.928828E-01    -2.915157E+00
    -4.746073E-01     5.740404E-01    -2.954880E+00
    -3.514942E-01     4.973099E-01    -3.088503E+00
    -3.144519E-01     4.811290E-01    -3.096599E+00
    -3.393903E-01     4.721565E-01    -3.122629E+00
    -3.141497E-01     4.672470E-01    -3.119615E+00
    -5.463679E-01     6.149656E-01    -2.805547E+00
    -5.693925E-01     6.090809E-01    -2.762362E+00
    -5.179271E-01     6.150002E-01    -2.830850E+00
    -4.881864E-01     6.102783E-01    -2.853744E+00
    -3.445612E-01     5.164455E-01    -3.035989E+00
    -3.154641E-01     4.978828E-01    -3.054872E+00
    -2.720812E-01     4.833248E-01    -3.059810E+00
    -2.853533E-01     4.618774E-01    -3.103366E+00
    -5.137252E-01     6.214883E-01    -2.774417E+00
    -5.475647E-01     6.186671E-01    -2.729939E+00
    -4.932822E-01     6.170858E-01    -2.814286E+00
    -3.307977E-01     5.300630E-01    -2.992949E+00
    -3.152793E-01     5.110310E-01    -3.016437E+00
    -2.884653E-01     5.033556E-01    -3.024139E+00
    -2.337754E-01     4.445771E-01    -3.079448E+00
    -5.561261E-01     6.392863E-01    -2.662348E+00
    -5.220531E-01     6.453672E-01    -2.680822E+00
    -5.547383E-01     6.260951E-01    -2.694838E+00
    -5.150575E-01     6.336013E-01    -2.720050E+00
    -2.934790E-01     5.233477E-01    -2.987925E+00
    -2.253323E-01     4.783592E-01    -3.039459E+00
    -6.174798E-01     6.453232E-01    -2.594996E+00
    -6.040291E-01     6.634064E-01    -2.537229E+00
    -5.804333E-01     6.630033E-01    -2.580303E+00
    -5.512604E-01     6.652071E-01    -2.594328E+00
    -5.788543E-01     6.464461E-01    -2.627115E+00
    -2.016451E-01     4.925793E-01    -3.008557E+00
    -1.862677E-01     4.530037E-01    -3.034382E+00
    -5.541831E-01     6.716241E-01    -2.538340E+00
    -5.756402E-01     6.720119E-01    -2.502569E+00
    -4.965895E-01     6.742589E-01    -2.543649E+00
    -1.652256E-01     4.807583E-01    -2.983343E+00
    -1.498950E-01     4.406786E-01    -3.002810E+00
    -5.485701E-01     6.734082E-01    -2.483733E+00
    -5.023580E-01     6.777134E-01    -2.478850E+00
    -1.419818E-01     4.824924E-01    -2.945226E+00
    -1.317224E-01     4.504048E-01    -2.965408E+00
    -4.806329E-01     6.781332E-01    -2.503645E+00
    -1.275740E-01     4.891022E-01    -2.906979E+00
    -1.186577E-01     4.601720E-01    -2.931507E+00
    -5.383917E-01     6.751408E-01    -2.436385E+00
    -4.990528E-01     6.867528E-01    -2.365694E+00
    -1.007319E-01     4.851988E-01    -2.862430E+00
    -9.326420E-02     4.494540E-01    -2.898209E+00
    -9.719771E-02     5.042905E-01    -2.817756E+00
    -7.665260E-02     4.773579E-01    -2.828940E+00
    -7.090402E-02     4.535741E-01    -2.854419E+00
    -8.824408E-02     5.167680E-01    -2.766261E+00
    -6.577474E-02     4.787019E-01    -2.790900E+00
    -5.549255E-02     4.537169E-01    -2.817687E+00
    -4.617448E-01     7.010166E-01    -2.289925E+00
    -5.621056E-02     4.831657E-01    -2.741168E+00
    -4.273439E-01     7.129690E-01    -2.252667E+00
    -7.769720E-02     5.399153E-01    -2.653182E+00
    -4.701944E-02     4.931023E-01    -2.680011E+00
    -4.639111E-01     7.158988E-01    -2.160662E+00
    -4.273457E-01     7.203406E-01    -2.192857E+00
    -4.746533E-01     7.075891E-01    -2.223047E+00
    -7.473675E-02     5.499211E-01    -2.595998E+00
    -3.669227E-02     5.063272E-01    -2.608455E+00
    -4.376883E-01     7.217497E-01    -2.115479E+00
    -8.819048E-02     5.844196E-01    -2.501047E+00
    -7.414251E-02     5.614205E-01    -2.538020E+00
    -4.800943E-02     5.315294E-01    -2.561870E+00
    -5.995848E-02     5.668290E-01    -2.483070E+00
    -4.298832E-02     5.384669E-01    -2.520766E+00
    -3.292922E-01     7.282994E-01    -2.081440E+00
    -1.540903E-01     6.404336E-01    -2.302598E+00
    -1.395275E-01     6.243251E-01    -2.326774E+00
    -1.183400E-01     6.165417E-01    -2.368582E+00
    -8.902251E-02     6.035040E-01    -2.402049E+00
    -6.162638E-02     5.869614E-01    -2.429024E+00
    -3.276501E-02     5.636862E-01    -2.445704E+00
    -2.044680E-02     5.281377E-01    -2.484257E+00
    -3.988732E-01     7.221870E-01    -2.058367E+00
    -3.534425E-01     7.270368E-01    -1.992134E+00
    -1.307854E-01     6.284371E-01    -2.287025E+00
    -1.102325E-01     6.120300E-01    -2.310637E+00
    -8.461838E-02     6.029697E-01    -2.341766E+00
    -5.788150E-02     5.938825E-01    -2.374538E+00
    -2.938909E-02     5.751999E-01    -2.402186E+00
    -1.634609E-02     5.595903E-01    -2.425517E+00
    -4.726942E-03     5.304150E-01    -2.437829E+00
    -3.039893E-01     7.311578E-01    -2.030819E+00
    -1.029381E-01     6.230243E-01    -2.260412E+00
    -7.875493E-02     6.082883E-01    -2.283748E+00
    -4.476790E-02     5.950250E-01    -2.314312E+00
    -3.004529E-02     5.828626E-01    -2.357641E+00
    -6.010309E-03     5.572159E-01    -2.367559E+00
    -2.605053E-03     5.434873E-01    -2.404205E+00
    -3.002000E-01     7.348179E-01    -1.970404E+00
    -3.246081E-01     7.351839E-01    -1.933599E+00
    -2.598071E-01     7.333834E-01    -2.007500E+00
    -1.004745E-01     6.379832E-01    -2.218570E+00
    -7.445407E-02     6.174792E-01    -2.226799E+00
    -4.746823E-02     6.064396E-01    -2.256423E+00
    -2.270290E-02     5.939975E-01    -2.273186E+00
    -1.228206E-02     5.807483E-01    -2.297961E+00
    -1.138675E-02     5.722555E-01    -2.330046E+00
    -2.914515E-01     7.356657E-01    -1.913718E+00
    -3.174228E-01     7.342613E-01    -1.878781E+00
    -2.541213E-01     7.302965E-01    -1.935342E+00
    -2.359657E-01     7.297902E-01    -1.972797E+00
    -1.103096E-01     6.731525E-01    -2.104526E+00
    -9.239869E-02     6.490864E-01    -2.144581E+00
    -8.537826E-02     6.291903E-01    -2.186016E+00
    -6.047426E-02     6.162836E-01    -2.186202E+00
    -4.395558E-02     6.112775E-01    -2.214650E+00
    -1.397567E-02     5.996854E-01    -2.228757E+00
     8.289717E-03     5.690308E-01    -2.262352E+00
    -2.667688E-01     7.243760E-01    -1.853633E+00
    -2.053480E-01     7.165227E-01    -1.949330E+00
    -1.718320E-01     7.068411E-01    -1.988441E+00
    -1.417402E-01     6.981970E-01    -2.021737E+00
    -1.157350E-01     6.848528E-01    -2.061876E+00
    -8.518237E-02     6.624131E-01    -2.089972E+00
    -5.833395E-02     6.423159E-01    -2.115469E+00
    -2.707597E-02     6.223506E-01    -2.136223E+00
    -5.710559E-02     6.248784E-01    -2.154552E+00
    -2.585439E-02     6.113828E-01    -2.182046E+00
     3.880252E-03     5.984689E-01    -2.194990E+00
     1.424582E-02     5.791340E-01    -2.213400E+00
    -2.142525E-01     7.160314E-01    -1.888822E+00
    -1.763551E-01     7.049487E-01    -1.906564E+00
    -1.653762E-01     7.011180E-01    -1.947973E+00
    -1.350469E-01     6.937403E-01    -1.974158E+00
    -1.023962E-01     6.848743E-01    -2.010731E+00
    -8.020470E-02     6.730664E-01    -2.046256E+00
    -4.704517E-02     6.540477E-01    -2.064550E+00
    -3.398229E-02     6.366584E-01    -2.101289E+00
    -1.813090E-02     6.231376E-01    -2.109883E+00
    -7.295415E-03     6.036932E-01    -2.125765E+00
     1.662497E-03     5.952390E-01    -2.162895E+00
     1.557694E-02     5.850506E-01    -2.187253E+00
    -1.353949E-01     6.948321E-01    -1.918135E+00
    -9.468317E-02     6.863074E-01    -1.958339E+00
    -4.919093E-02     6.689775E-01    -2.004165E+00
    -3.069778E-02     6.569077E-01    -2.034063E+00
    -2.185935E-02     6.391719E-01    -2.046854E+00
    -1.950654E-02     6.190381E-01    -2.079228E+00
    -1.135778E-02     6.102740E-01    -2.104447E+00
    -8.814299E-02     6.839878E-01    -1.904733E+00
    -1.192585E-01     6.942643E-01    -1.857781E+00
    -5.387768E-02     6.757409E-01    -1.943689E+00
    -2.571932E-02     6.624718E-01    -1.968303E+00
    -1.462979E-02     6.363127E-01    -1.986951E+00
    -1.612444E-02     6.414509E-01    -2.020346E+00
    -4.104393E-02     6.641013E-01    -1.889233E+00
    -2.245405E-02     6.497210E-01    -1.929526E+00
    -1.217655E-02     6.402623E-01    -1.956520E+00
    -3.831192E-02     7.097185E-01    -1.739177E+00
    -5.203308E-02     7.016779E-01    -1.697533E+00
    -2.783748E-02     7.088664E-01    -1.726327E+00
    -1.940697E-02     7.036356E-01    -1.753855E+00
    -3.843840E-02     7.040498E-01    -1.771160E+00
    -1.507440E-02     6.936463E-01    -1.723340E+00
     3.722532E-02     8.487904E-01    -1.054883E+00
     5.253721E-03     8.422982E-01    -1.071725E+00
     7.676749E-03     8.556921E-01    -1.035029E+00
     7.020389E-02     8.359114E-01    -1.076907E+00
     3.196971E-02     8.260283E-01    -1.105942E+00
     7.702460E-02     8.145987E-01    -1.118018E+00
     3.371219E-02     8.559992E-01    -9.975129E-01
     7.457102E-02     8.450823E-01    -1.030656E+00
     9.119101E-02     8.355482E-01    -1.056323E+00
     1.034095E-01     8.201134E-01    -1.078530E+00
     7.797045E-02     8.442091E-01    -9.799950E-01
     9.554770E-02     8.383028E-01    -1.003589E+00
     1.114575E-01     8.256058E-01    -1.029573E+00
    -6.599598E-01     5.507346E-01    -2.928548E+00
    -6.660047E-01     5.603652E-01    -2.906178E+00
    -6.391246E-01     5.724787E-01    -2.924281E+00
    -6.173135E-01     5.583759E-01    -2.963392E+00
    -6.457693E-01     5.405040E-01    -2.949262E+00
    -5.929449E-01     5.453134E-01    -2.988425E+00
    -6.189236E-01     5.264000E-01    -2.978668E+00
    -5.834443E-01     5.105537E-01    -3.004100E+00
    -6.700566E-01     5.687297E-01    -2.880252E+00
    -6.719548E-01     5.704949E-01    -2.839235E+00
    -6.489897E-01     5.811524E-01    -2.881156E+00
    -5.092444E-01     5.211201E-01    -3.021799E+00
    -5.391674E-01     5.135219E-01    -3.019540E+00
    -5.067989E-01     4.890006E-01    -3.040615E+00
    -6.213372E-01     5.933743E-01    -2.785969E+00
    -4.630461E-01     4.785047E-01    -3.067545E+00
    -4.308011E-01     4.673154E-01    -3.096646E+00
    -4.059915E-01     4.511201E-01    -3.120176E+00
    -3.614951E-01     4.501115E-01    -3.140775E+00
    -3.917698E-01     4.294850E-01    -3.140181E+00
    -3.363480E-01     4.312049E-01    -3.152903E+00
    -3.665305E-01     4.205039E-01    -3.155649E+00
    -3.383773E-01     4.028599E-01    -3.158728E+00
    -3.112249E-01     4.465358E-01    -3.131638E+00
    -3.068925E-01     4.118676E-01    -3.142356E+00
    -6.055446E-01     5.974405E-01    -2.739965E+00
    -2.690086E-01     4.377210E-01    -3.110156E+00
    -2.793810E-01     4.183838E-01    -3.123193E+00
    -6.243127E-01     6.207675E-01    -2.644542E+00
    -5.891021E-01     6.217444E-01    -2.669631E+00
    -6.189020E-01     6.049808E-01    -2.680693E+00
    -5.867814E-01     6.078902E-01    -2.710563E+00
    -6.279203E-01     5.943609E-01    -2.709466E+00
    -2.472217E-01     4.083535E-01    -3.105151E+00
    -6.651983E-01     6.163633E-01    -2.620530E+00
    -6.557657E-01     6.393453E-01    -2.560026E+00
    -1.925123E-01     4.195225E-01    -3.069462E+00
    -2.123156E-01     3.996269E-01    -3.090769E+00
    -1.828660E-01     3.899497E-01    -3.075468E+00
    -6.585246E-01     6.484221E-01    -2.492083E+00
    -1.546659E-01     3.997896E-01    -3.036687E+00
    -6.060144E-01     6.667276E-01    -2.486293E+00
    -6.340887E-01     6.575924E-01    -2.433290E+00
    -5.769543E-01     6.708363E-01    -2.457638E+00
    -1.230192E-01     4.055635E-01    -2.986158E+00
    -5.820606E-01     6.698863E-01    -2.394016E+00
    -6.358575E-01     6.571933E-01    -2.389027E+00
    -1.004091E-01     4.154221E-01    -2.940139E+00
    -5.769774E-01     6.769841E-01    -2.318276E+00
    -7.580596E-02     4.067811E-01    -2.904587E+00
    -5.221742E-01     6.925441E-01    -2.280269E+00
    -6.527386E-02     4.211686E-01    -2.875404E+00
    -5.777893E-01     6.863068E-01    -2.255599E+00
    -5.394539E-01     7.007440E-01    -2.206207E+00
    -4.651446E-02     4.184639E-01    -2.834061E+00
    -5.932216E-01     6.898947E-01    -2.204853E+00
    -5.828041E-01     6.965231E-01    -2.143669E+00
    -3.255691E-02     4.293763E-01    -2.776614E+00
    -5.283490E-01     7.087110E-01    -2.145649E+00
    -5.477897E-01     7.048593E-01    -2.088530E+00
    -4.971224E-01     7.108391E-01    -2.171597E+00
    -1.963209E-02     4.329311E-01    -2.719470E+00
    -4.943620E-01     7.142951E-01    -2.117473E+00
    -5.023147E-01     7.132721E-01    -2.045531E+00
    -2.338657E-02     4.772872E-01    -2.639699E+00
    -1.474244E-02     4.434433E-01    -2.667723E+00
    -5.498650E-03     4.639476E-01    -2.604343E+00
    -6.047461E-03     4.481630E-01    -2.627471E+00
    -4.557934E-01     7.188171E-01    -2.031719E+00
    -4.839983E-01     7.169980E-01    -1.992797E+00
    -1.697730E-02     5.044174E-01    -2.540849E+00
     1.956311E-03     4.647304E-01    -2.568215E+00
    -4.554718E-01     7.185786E-01    -1.971640E+00
    -4.295302E-01     7.185998E-01    -2.002642E+00
     3.906162E-03     4.759841E-01    -2.502164E+00
     8.093514E-03     4.690304E-01    -2.535168E+00
    -4.249572E-01     7.184791E-01    -1.947237E+00
    -4.013572E-01     7.194883E-01    -1.988983E+00
     2.786891E-03     4.882263E-01    -2.457309E+00
    -3.918805E-01     7.224297E-01    -1.929075E+00
     1.177217E-02     5.084542E-01    -2.368704E+00
     9.570890E-03     5.092589E-01    -2.408358E+00
     8.899497E-03     4.902020E-01    -2.425796E+00
    -3.553694E-01     7.310650E-01    -1.907206E+00
    -3.900734E-01     7.255887E-01    -1.867496E+00
     9.078640E-03     5.565053E-01    -2.304620E+00
     9.008637E-03     5.430905E-01    -2.336902E+00
    -3.519031E-01     7.319243E-01    -1.853954E+00
    -3.798896E-01     7.247209E-01    -1.810012E+00
    -7.496909E-02     6.238179E-01    -2.166266E+00
     2.005735E-02     5.432528E-01    -2.285332E+00
     1.868425E-02     5.135159E-01    -2.311806E+00
    -3.253927E-01     7.272123E-01    -1.822540E+00
     2.217609E-02     5.473862E-01    -2.225699E+00
     2.304540E-02     5.220455E-01    -2.261520E+00
    -3.011974E-01     7.162611E-01    -1.772856E+00
     2.063829E-03     5.724405E-01    -2.139126E+00
     1.560247E-02     5.526103E-01    -2.179258E+00
    -2.420807E-01     7.149668E-01    -1.789122E+00
    -2.137433E-01     7.137468E-01    -1.836124E+00
    -1.827583E-01     7.084324E-01    -1.855785E+00
    -1.532242E-01     7.012900E-01    -1.874018E+00
    -1.158288E-02     6.000708E-01    -2.037955E+00
    -1.668340E-02     5.780262E-01    -2.072341E+00
    -9.792449E-03     5.804028E-01    -2.104253E+00
    -1.906750E-01     7.097386E-01    -1.796421E+00
    -2.183835E-01     7.108852E-01    -1.740480E+00
    -1.533586E-01     7.031511E-01    -1.827319E+00
    -8.137458E-03     6.147778E-01    -2.008842E+00
    -9.048168E-03     5.899892E-01    -2.010723E+00
    -1.813472E-01     7.076763E-01    -1.743539E+00
    -1.961073E-01     7.058014E-01    -1.694870E+00
    -1.536747E-01     7.044321E-01    -1.770971E+00
    -1.241981E-01     6.988419E-01    -1.799771E+00
    -9.677004E-02     6.936017E-01    -1.819171E+00
    -7.546286E-02     6.852390E-01    -1.855449E+00
    -6.944693E-03     6.276077E-01    -1.932277E+00
    -6.123763E-03     6.151728E-01    -1.960488E+00
    -6.697587E-03     6.015212E-01    -1.988509E+00
    -1.542464E-01     7.026449E-01    -1.705928E+00
    -1.219792E-01     7.015386E-01    -1.744256E+00
    -9.454114E-02     6.988369E-01    -1.774505E+00
    -6.085693E-02     6.942389E-01    -1.804228E+00
    -3.505786E-02     6.772262E-01    -1.844708E+00
    -1.340881E-02     6.523108E-01    -1.857141E+00
    -5.655469E-03     6.203151E-01    -1.879365E+00
    -8.959557E-02     7.027582E-01    -1.729227E+00
    -6.291801E-02     7.041416E-01    -1.751899E+00
    -1.892518E-02     6.884835E-01    -1.798562E+00
    -4.639362E-03     6.610929E-01    -1.825071E+00
     6.327607E-03     6.365933E-01    -1.834970E+00
    -1.079388E-01     7.011386E-01    -1.686844E+00
    -1.073248E-01     6.940002E-01    -1.629550E+00
    -8.134735E-02     6.975752E-01    -1.659268E+00
    -5.584526E-02     6.802582E-01    -1.629523E+00
    -3.459127E-02     6.884790E-01    -1.666465E+00
    -1.781131E-02     6.815665E-01    -1.689637E+00
    -2.414824E-02     6.685769E-01    -1.661029E+00
    -9.877615E-03     6.570829E-01    -1.685472E+00
    -2.392255E-03     6.508312E-01    -1.726712E+00
     3.665750E-02     7.788413E-01    -1.201966E+00
    -9.457832E-03     7.754422E-01    -1.196197E+00
     7.506902E-03     7.986211E-01    -1.152914E+00
     5.454199E-02     7.526948E-01    -1.260957E+00
     7.690548E-02     7.682498E-01    -1.221444E+00
     1.028394E-01     7.456198E-01    -1.259601E+00
     8.051745E-02     7.326259E-01    -1.299538E+00
     1.286564E-01     7.211248E-01    -1.300068E+00
    -1.067290E-01     8.529308E-01    -9.831069E-01
    -1.365206E-01     8.588990E-01    -9.354555E-01
    -1.007223E-01     8.659097E-01    -9.586866E-01
    -7.609720E-02     8.611171E-01    -9.812540E-01
    -4.980164E-02     8.504113E-01    -1.016747E+00
    -8.247446E-02     8.395256E-01    -1.021571E+00
    -2.403330E-02     8.435490E-01    -1.050934E+00
    -7.262682E-02     8.173737E-01    -1.068657E+00
    -2.416729E-02     8.157601E-01    -1.106386E+00
     4.771219E-02     8.041319E-01    -1.149380E+00
     8.003106E-02     7.898214E-01    -1.169361E+00
     1.246998E-01     7.619201E-01    -1.202869E+00
     1.554512E-01     7.278000E-01    -1.261116E+00
    -8.854094E-02     8.700764E-01    -9.342511E-01
    -4.604079E-02     8.652568E-01    -9.617329E-01
    -1.283903E-02     8.595770E-01    -1.000374E+00
     1.244489E-01     7.896694E-01    -1.126447E+00
     1.722785E-01     7.520869E-01    -1.167194E+00
     1.759569E-01     7.341411E-01    -1.221086E+00
     2.091564E-01     6.986248E-01    -1.269219E+00
    -5.822764E-02     8.689016E-01    -8.944154E-01