 VARIABLES = "x", "y", "z"
 ZONE N=       18774, E=       37544, ZONETYPE=FETRIANGLE
 DATAPACKING=POINT
         0.00000000000              0.00000000000               -2.00000000000
         -0.649465779326           5.125152815550E-04        -8.105448306800E-02
       -2.480449560780E-02         1.957410881160E-05           -1.99857510871
       -4.926536278790E-02         3.887708463140E-05           -1.99423264937
       -7.312310776670E-02         5.770392573060E-05           -1.98729903891
       -9.616243134400E-02         7.588497404320E-05           -1.97799750524
         -0.118254918670           9.331892246290E-05           -1.96662342096
         -0.139354848879           1.099696062350E-04           -1.95349620527
         -0.159457493936           1.258332749410E-04           -1.93888531487
         -0.178593147912           1.409338554000E-04           -1.92302734893
         -0.196810288766           1.553096135220E-04           -1.90612008236
         -0.214161316957           1.690018954910E-04           -1.88832573583
         -0.230709689749           1.820607733190E-04           -1.86978095653
         -0.246508198092           1.945279068090E-04           -1.85059391999
         -0.261613898164           2.064483223180E-04           -1.83085576393
         -0.276074492700           2.178596637750E-04           -1.81064027417
         -0.289936948592           2.287989939690E-04           -1.79000961637
         -0.303241897944           2.392983767880E-04           -1.76901506865
         -0.316027283960           2.493877543360E-04           -1.74769991571
         -0.328326683455           2.590936239270E-04           -1.72610063521
         -0.340170823873           2.684402346880E-04           -1.70424826941
         -0.351587209259           2.774492884960E-04           -1.68216938092
         -0.362600908797           2.861405640850E-04           -1.65988680847
         -0.373234476806           2.945318693990E-04           -1.63742031980
         -0.383508556021           3.026395114740E-04           -1.61478712536
         -0.393441746684           3.104781524840E-04           -1.59200224384
         -0.403051209500           3.180613005950E-04           -1.56907891571
         -0.412352402005           3.254011624490E-04           -1.54602877057
         -0.421359720273           3.325091273470E-04           -1.52286218096
         -0.430086121233           3.393954212260E-04           -1.49958831355
         -0.438543779587           3.460696421780E-04           -1.47621541982
         -0.446743657781           3.525404401400E-04           -1.45275084476
         -0.454696116782           3.588159925320E-04           -1.42920124648
         -0.462410526489           3.649036927520E-04           -1.40557259221
         -0.469895746350           3.708105313010E-04           -1.38187032781
         -0.477159864210           3.765428905180E-04           -1.35809936235
         -0.484210492592           3.821067777020E-04           -1.33426419692
         -0.491054668098           3.875077456230E-04           -1.31036892439
         -0.497698966813           3.927509837050E-04           -1.28641730054
         -0.504149548370           3.978413527950E-04           -1.26241277478
         -0.510412128325           4.027833633150E-04           -1.23835851378
         -0.516492119729           4.075812869690E-04           -1.21425744753
         -0.522394527587           4.122390734480E-04           -1.19011227484
         -0.528124113699           4.167604805290E-04           -1.16592550561
         -0.533685299047           4.211489970720E-04           -1.14169945947
         -0.539082275128           4.254079307300E-04           -1.11743630114
         -0.544318972906           4.295403834450E-04           -1.09313804347
         -0.549399090441           4.335492738930E-04           -1.06880656559
         -0.554326134676           4.374373699020E-04           -1.04444362695
         -0.559103383737           4.412072563020E-04           -1.02005087194
         -0.563733965233           4.448614015890E-04          -0.995629847660
         -0.568220805131           4.484021239900E-04          -0.971182004256
         -0.572566687577           4.518316195410E-04          -0.946708709685
         -0.576774239032           4.551519455480E-04          -0.922211252212
         -0.580845938497           4.583650582910E-04          -0.897690848143
         -0.584784146838           4.614728298250E-04          -0.873148648618
         -0.588591079328           4.644770096750E-04          -0.848585742794
         -0.592268851572           4.673792644570E-04          -0.824003165238
         -0.595819454579           4.701811589980E-04          -0.799401897162
         -0.599244778005           4.728841879270E-04          -0.774782872692
         -0.602546615734           4.754897776750E-04          -0.750146981722
         -0.605726655957           4.779992573650E-04          -0.725495072510
         -0.608786509754           4.804138922270E-04          -0.700827956314
         -0.611727691125           4.827348781540E-04          -0.676146408412
         -0.614551638395           4.849633511330E-04          -0.651451172003
         -0.617259712663           4.871003847360E-04          -0.626742959877
         -0.619853194248           4.891469892280E-04          -0.602022456553
         -0.622333301413           4.911041260960E-04          -0.577290320916
         -0.624701175597           4.929726960640E-04          -0.552547187424
         -0.626957897526           4.947535519480E-04          -0.527793668352
         -0.629104485549           4.964474973730E-04          -0.503030355074
         -0.631141892589           4.980552843250E-04          -0.478257819670
         -0.633071020088           4.995776241650E-04          -0.453476616562
         -0.634892706665           5.010151786840E-04          -0.428687283561
         -0.636607740248           5.023685696660E-04          -0.403890343348
         -0.638216858001           5.036383788440E-04          -0.379086304417
         -0.639720734780           5.048251387730E-04          -0.354275662333
         -0.641120009969           5.059293540240E-04          -0.329458900894
         -0.642415288313           5.069515018280E-04          -0.304636493230
         -0.643607055759           5.078919656700E-04          -0.279808901633
         -0.644695783603           5.087511174720E-04          -0.254976579204
         -0.645682215549           5.095295441230E-04          -0.230139976307
         -0.646566367568           5.102272582300E-04          -0.205299526354
         -0.647347719959           5.108438496850E-04          -0.180455646791
         -0.648030100868           5.113823394100E-04          -0.155608813647
         -0.648612166019           5.118416665930E-04          -0.130759434416
         -0.649078654868           5.122097886290E-04          -0.105907693025
          0.649465982010           7.953401681610E-17        -8.105448306800E-02
        2.479928154910E-02          0.00000000000               -1.99854383826
        4.926789125900E-02          0.00000000000               -1.99424657634
        7.312281984360E-02          0.00000000000               -1.98730420888
        9.615910919470E-02          0.00000000000               -1.97799354608
          0.118253640916            0.00000000000               -1.96662345760
          0.139353534551            0.00000000000               -1.95349625555
          0.159456377307            0.00000000000               -1.93888557935
          0.178591935814            0.00000000000               -1.92302749589
          0.196807988989            0.00000000000               -1.90611998597
          0.214160606426            0.00000000000               -1.88832660563
          0.230708121533            0.00000000000               -1.86978152737
          0.246507601134            0.00000000000               -1.85059466555
          0.261612900665            0.00000000000               -1.83085633977
          0.276073924531            0.00000000000               -1.81064096845
          0.289936294503            0.00000000000               -1.79001026774
          0.303241431226            0.00000000000               -1.76901573111
          0.316026820342            0.00000000000               -1.74770056559
          0.328326313748            0.00000000000               -1.72610127906
          0.340170476076            0.00000000000               -1.70424891147
          0.351586922899            0.00000000000               -1.68217001483
          0.362600636994            0.00000000000               -1.65988743627
          0.373234257183            0.00000000000               -1.63742094588
          0.383508338161            0.00000000000               -1.61478774192
          0.393441581934            0.00000000000               -1.59200285928
          0.403051040122            0.00000000000               -1.56907950721
          0.412352285486            0.00000000000               -1.54602936400
          0.421359585585            0.00000000000               -1.52286276547
          0.430086038990            0.00000000000               -1.49958889535
          0.438543683658            0.00000000000               -1.47621597664
          0.446743602398            0.00000000000               -1.45275141108
          0.454696050967            0.00000000000               -1.42920179232
          0.462410494308            0.00000000000               -1.40557313292
          0.469895707331            0.00000000000               -1.38187086709
          0.477159851197            0.00000000000               -1.35809987835
          0.484210481198            0.00000000000               -1.33426471970
          0.491054672299            0.00000000000               -1.31036941831
          0.497698980364            0.00000000000               -1.28641780488
          0.504149569774            0.00000000000               -1.26241324753
          0.510412162672            0.00000000000               -1.23835899889
          0.516492158547            0.00000000000               -1.21425790096
          0.522394577704            0.00000000000               -1.19011273967
          0.528124169155            0.00000000000               -1.16592594467
          0.533685364678            0.00000000000               -1.14169989125
          0.539082345739            0.00000000000               -1.11743673085
          0.544319052861            0.00000000000               -1.09313844332
          0.549399175922            0.00000000000               -1.06880697964
          0.554326225000            0.00000000000               -1.04444401575
          0.559103486165            0.00000000000               -1.02005124251
          0.563734065788            0.00000000000              -0.995630230403
          0.568220916438            0.00000000000              -0.971182358135
          0.572566805074            0.00000000000              -0.946709049000
          0.576774356457            0.00000000000              -0.922211603304
          0.580846066536            0.00000000000              -0.897691171261
          0.584784278333            0.00000000000              -0.873148951630
          0.588591213575            0.00000000000              -0.848586061315
          0.592268990567            0.00000000000              -0.824003463038
          0.595819600302            0.00000000000              -0.799402166541
          0.599244926852            0.00000000000              -0.774783146706
          0.602546765257            0.00000000000              -0.750147256100
          0.605726813270            0.00000000000              -0.725495318647
          0.608786670653            0.00000000000              -0.700828180482
          0.611727852977            0.00000000000              -0.676146644869
          0.614551803717            0.00000000000              -0.651451401308
          0.617259881853            0.00000000000              -0.626743160628
          0.619853368786            0.00000000000              -0.602022635796
          0.622333475605            0.00000000000              -0.577290509799
          0.624701351873            0.00000000000              -0.552547374337
          0.626958078148            0.00000000000              -0.527793829611
          0.629104668879            0.00000000000              -0.503030490399
          0.631142078529            0.00000000000              -0.478257950361
          0.633071205565            0.00000000000              -0.453476759029
          0.634892894855            0.00000000000              -0.428687409739
          0.636607931921            0.00000000000              -0.403890441707
          0.638217049686            0.00000000000              -0.379086382126
          0.639720930282            0.00000000000              -0.354275744036
          0.641120208588            0.00000000000              -0.329458988343
          0.642415470885            0.00000000000              -0.304636561306
          0.643607253843            0.00000000000              -0.279808942440
          0.644696048360            0.00000000000              -0.254976601393
          0.645682300542            0.00000000000              -0.230139998910
          0.646566413687            0.00000000000              -0.205299554662
          0.647348747679            0.00000000000              -0.180455672486
          0.648029618199            0.00000000000              -0.155608792947
          0.648609299124            0.00000000000              -0.130759351288
          0.649088023061            0.00000000000              -0.105907778092
         -0.649013184768          -2.424763304200E-02        -8.105448306800E-02
         -0.647614142386          -4.901003185610E-02        -8.105448306800E-02
         -0.645262814012          -7.376965901410E-02        -8.105448306800E-02
         -0.641957037801          -9.847447797690E-02        -8.105448306800E-02
         -0.637698573628            -0.123071484669          -8.105448306800E-02
         -0.632493342559            -0.147506723159          -8.105448306800E-02
         -0.626351488014            -0.171726160594          -8.105448306800E-02
         -0.619287410454            -0.195676173688          -8.105448306800E-02
         -0.611319633406            -0.219304279610          -8.105448306800E-02
         -0.602470608533            -0.242559738644          -8.105448306800E-02
         -0.592765685234            -0.265395750129          -8.105448306800E-02
         -0.582185237707            -0.287865263048          -8.105448306800E-02
         -0.570719919775            -0.309975539022          -8.105448306800E-02
         -0.558390785474            -0.331671210832          -8.105448306800E-02
         -0.545224933226            -0.352896349021          -8.105448306800E-02
         -0.531255573406            -0.373595473089          -8.105448306800E-02
         -0.516521948222            -0.393714539545          -8.105448306800E-02
         -0.501067537691            -0.413203804992          -8.105448306800E-02
         -0.484891964271            -0.432071573306          -8.105448306800E-02
         -0.468017846644            -0.450294743460          -8.105448306800E-02
         -0.450491841833            -0.467828133218          -8.105448306800E-02
         -0.432298228377            -0.484689903496          -8.105448306800E-02
         -0.413408670043            -0.500898525604          -8.105448306800E-02
         -0.393862769032            -0.516408927849          -8.105448306800E-02
         -0.373703704275            -0.531179444475          -8.105448306800E-02
         -0.352977571042            -0.545172354514          -8.105448306800E-02
         -0.331732716247            -0.558354247736          -8.105448306800E-02
         -0.310019060636            -0.570696279472          -8.105448306800E-02
         -0.287887390171            -0.582174297121          -8.105448306800E-02
         -0.265388629054            -0.592768872520          -8.105448306800E-02
         -0.242573118572            -0.602465222163          -8.105448306800E-02
         -0.219432416508            -0.611273650331          -8.105448306800E-02
         -0.195904839643            -0.619215112051          -8.105448306800E-02
         -0.172032738231            -0.626267354009          -8.105448306800E-02
         -0.147864328067            -0.632409836459          -8.105448306800E-02
         -0.123449763146            -0.637625452535          -8.105448306800E-02
       -9.884131797040E-02          -0.641900658250          -8.105448306800E-02
       -7.409256354820E-02          -0.645225815641          -8.105448306800E-02
       -4.925795923320E-02          -0.647595332911          -8.105448306800E-02
       -2.439210292590E-02          -0.649007770340          -8.105448306800E-02
        4.509004301580E-04          -0.649465825408          -8.105448306800E-02
        2.525855009850E-02          -0.648974627305          -8.105448306800E-02
        5.010574231800E-02          -0.647530289291          -8.105448306800E-02
        7.494555367230E-02          -0.645127294232          -8.105448306800E-02
        9.971830433210E-02          -0.641765004168          -8.105448306800E-02
          0.124361789822            -0.637448199364          -8.105448306800E-02
          0.148812198246            -0.632187465114          -8.105448306800E-02
          0.173005038175            -0.625999455057          -8.105448306800E-02
          0.196876085028            -0.618906995380          -8.105448306800E-02
          0.220392007838            -0.610928329707          -8.105448306800E-02
          0.243539919989            -0.602075052595          -8.105448306800E-02
          0.266292239758            -0.592363490190          -8.105448306800E-02
          0.288720577444            -0.581761539578          -8.105448306800E-02
          0.310790164695            -0.570276718196          -8.105448306800E-02
          0.332447873641            -0.557928734002          -8.105448306800E-02
          0.353641626837            -0.544741829885          -8.105448306800E-02
          0.374321091398            -0.530744554497          -8.105448306800E-02
          0.394438311137            -0.515969456001          -8.105448306800E-02
          0.413948272192            -0.500452684810          -8.105448306800E-02
          0.432809398675            -0.484233502895          -8.105448306800E-02
          0.450984002520            -0.467353710552          -8.105448306800E-02
          0.468446568827            -0.449848723251          -8.105448306800E-02
          0.485252461601            -0.431666664414          -8.105448306800E-02
          0.501385467209            -0.412817968404          -8.105448306800E-02
          0.516804653942            -0.393343375985          -8.105448306800E-02
          0.531473516015            -0.373285364774          -8.105448306800E-02
          0.545371948925            -0.352669107041          -8.105448306800E-02
          0.558470061649            -0.331537706763          -8.105448306800E-02
          0.570739266606            -0.309939915591          -8.105448306800E-02
          0.582155652133            -0.287925090741          -8.105448306800E-02
          0.592699964679            -0.265542487877          -8.105448306800E-02
          0.602358367382            -0.242838339265          -8.105448306800E-02
          0.611157988924            -0.219754347486          -8.105448306800E-02
          0.619097786526            -0.196275297358          -8.105448306800E-02
          0.626153872620            -0.172445322313          -8.105448306800E-02
          0.632305133285            -0.148311427047          -8.105448306800E-02
          0.637533412734            -0.123924208428          -8.105448306800E-02
          0.641824777030          -9.933285674380E-02        -8.105448306800E-02
          0.645168380721          -7.459103218440E-02        -8.105448306800E-02
          0.647557537755          -4.975235422370E-02        -8.105448306800E-02
          0.648989634450          -2.486996500980E-02        -8.105448306800E-02
          0.648990167918           2.485602638640E-02        -8.105448306800E-02
          0.647562035184           4.969377211780E-02        -8.105448306800E-02
          0.645183399772           7.446101287280E-02        -8.105448306800E-02
          0.641859889676           9.910571065100E-02        -8.105448306800E-02
          0.637600887825             0.123576569549          -8.105448306800E-02
          0.632418758438             0.147826167319          -8.105448306800E-02
          0.626311141572             0.171873253996          -8.105448306800E-02
          0.619280905043             0.195696761436          -8.105448306800E-02
          0.611345695754             0.219231617047          -8.105448306800E-02
          0.602526743131             0.242420261890          -8.105448306800E-02
          0.592846272561             0.265215682705          -8.105448306800E-02
          0.582323150059             0.287586179215          -8.105448306800E-02
          0.570933068541             0.309582770752          -8.105448306800E-02
          0.558682264129             0.331179995669          -8.105448306800E-02
          0.545589556151             0.352332367555          -8.105448306800E-02
          0.531677493342             0.372994777999          -8.105448306800E-02
          0.516972264575             0.393123058770          -8.105448306800E-02
          0.501503575693             0.412674477456          -8.105448306800E-02
          0.485304451601             0.431608214730          -8.105448306800E-02
          0.468410947802             0.449885814127          -8.105448306800E-02
          0.450863734656             0.467469736501          -8.105448306800E-02
          0.432711180391             0.484321273628          -8.105448306800E-02
          0.413905778295             0.500487829356          -8.105448306800E-02
          0.394449247697             0.515961096127          -8.105448306800E-02
          0.374380725559             0.530702490625          -8.105448306800E-02
          0.353742339410             0.544676434613          -8.105448306800E-02
          0.332578689444             0.557850765972          -8.105448306800E-02
          0.310936313156             0.570197044835          -8.105448306800E-02
          0.288863132889             0.581690770194          -8.105448306800E-02
          0.266407868571             0.592311496480          -8.105448306800E-02
          0.243619423595             0.602042886636          -8.105448306800E-02
          0.220545488001             0.610872940559          -8.105448306800E-02
          0.197135278588             0.618824484520          -8.105448306800E-02
          0.173364093911             0.625900113838          -8.105448306800E-02
          0.149277993995             0.632077639202          -8.105448306800E-02
          0.124926494121             0.637337769138          -8.105448306800E-02
          0.100362083307             0.641664642958          -8.105448306800E-02
        7.563970704680E-02           0.645046274008          -8.105448306800E-02
        5.081620725960E-02           0.647474921958          -8.105448306800E-02
        2.594970445600E-02           0.648947358897          -8.105448306800E-02
        1.096947883200E-03           0.649465055626          -8.105448306800E-02
       -2.370654957050E-02           0.649033174264          -8.105448306800E-02
       -4.848285158220E-02           0.647653822635          -8.105448306800E-02
       -7.327305635250E-02           0.645319394218          -8.105448306800E-02
       -9.801717564090E-02           0.642027020399          -8.105448306800E-02
         -0.122654746874             0.637778859686          -8.105448306800E-02
         -0.147126142906             0.632581978760          -8.105448306800E-02
         -0.171373302145             0.626448124244          -8.105448306800E-02
         -0.195340388097             0.619393408158          -8.105448306800E-02
         -0.218974377361             0.611437882168          -8.105448306800E-02
         -0.242225590916             0.602605031301          -8.105448306800E-02
         -0.265048175690             0.592921180524          -8.105448306800E-02
         -0.287448614029             0.582391067387          -8.105448306800E-02
         -0.309489886368             0.570983424755          -8.105448306800E-02
         -0.331128151230             0.558712993595          -8.105448306800E-02
         -0.352315385268             0.545600522424          -8.105448306800E-02
         -0.373004453237             0.531670705960          -8.105448306800E-02
         -0.393149512664             0.516952146689          -8.105448306800E-02
         -0.412706554410             0.501477178958          -8.105448306800E-02
         -0.431634000460             0.485281517701          -8.105448306800E-02
         -0.449893168191             0.468403883293          -8.105448306800E-02
         -0.467448724173             0.450885519725          -8.105448306800E-02
         -0.484291177982             0.432744862783          -8.105448306800E-02
         -0.500472508234             0.413924303920          -8.105448306800E-02
         -0.515959509889             0.394451322651          -8.105448306800E-02
         -0.530710969086             0.374368706129          -8.105448306800E-02
         -0.544687866815             0.353724736636          -8.105448306800E-02
         -0.557854263127             0.332572823418          -8.105448306800E-02
         -0.570178502140             0.310970316083          -8.105448306800E-02
         -0.581661056753             0.288922960051          -8.105448306800E-02
         -0.592289601490             0.266456542008          -8.105448306800E-02
         -0.602038079001             0.243631305143          -8.105448306800E-02
         -0.610892917049             0.220490148237          -8.105448306800E-02
         -0.618879109338             0.196963724393          -8.105448306800E-02
         -0.625979206569             0.173078290746          -8.105448306800E-02
         -0.632169556544             0.148888256001          -8.105448306800E-02
         -0.637431048093             0.124449669693          -8.105448306800E-02
         -0.641749277264           9.981947102140E-02        -8.105448306800E-02
         -0.645114596890           7.505476441850E-02        -8.105448306800E-02
         -0.647522049823           5.021211771500E-02        -8.105448306800E-02
         -0.648971183423           2.534687539590E-02        -8.105448306800E-02
         -0.569472754183           4.493900960430E-04          0.00000000000
         -0.645813704615           5.096341189980E-04        -5.608231519720E-02
         -0.634563960560           5.007567887500E-04        -3.349051569990E-02
         -0.616836153241           4.867670149300E-04        -1.552747136420E-02
         -0.594394606718           4.690572223500E-04        -3.980917737640E-03
          0.569472931903            0.00000000000              0.00000000000
          0.594394785721           1.208010843680E-16        -3.980915539130E-03
          0.616836344661           1.039847195320E-16        -1.552746994330E-02
          0.634564159955           9.070055284270E-17        -3.349051676620E-02
          0.645813908218           8.227066293990E-17        -5.608232170210E-02
          0.568915642688          -2.518751299050E-02          0.00000000000
          0.567240105733          -5.037938654790E-02          0.00000000000
          0.564445796682          -7.550074267070E-02          0.00000000000
          0.560538374273            -0.100479604797            0.00000000000
          0.555529966281            -0.125243268602            0.00000000000
          0.549438080739            -0.149723796434            0.00000000000
          0.542286436441            -0.173852928738            0.00000000000
          0.534103558950            -0.197567223467            0.00000000000
          0.524920634572            -0.220811565680            0.00000000000
          0.514715530035            -0.243654145148            0.00000000000
          0.503482216071            -0.266092236395            0.00000000000
          0.491244393990            -0.288059654898            0.00000000000
          0.478032985217            -0.309489717405            0.00000000000
          0.463886203269            -0.330316530896            0.00000000000
          0.448842002887            -0.350485772321            0.00000000000
          0.432932836776            -0.369957536221            0.00000000000
          0.416211530105            -0.388673876015            0.00000000000
          0.398724289299            -0.406593606856            0.00000000000
          0.380415381475            -0.423773001707            0.00000000000
          0.361301335830            -0.440182649452            0.00000000000
          0.341433155815            -0.455766189512            0.00000000000
          0.320867838974            -0.470471306332            0.00000000000
          0.299667553342            -0.484250737623            0.00000000000
          0.277898704733            -0.497063104683            0.00000000000
          0.255630857048            -0.508873544634            0.00000000000