 VARIABLES = "x", "y", "z"
 ZONE N=       10228 , E=       20421 , ZONETYPE=FETRIANGLE
 DATAPACKING=POINT
1.903940E+00    2.591720E-02    8.564660E-01
1.853590E+00    5.918080E-02    8.498050E-01
1.867780E+00    1.045140E-02    8.402690E-01
1.887400E+00    6.806790E-02    8.570360E-01
1.823710E+00    1.977250E-02    8.397850E-01
1.953030E+00    2.394570E-02    8.843140E-01
1.918290E+00    7.102650E-02    8.709630E-01
1.874470E+00    1.146730E-01    8.689100E-01
1.798490E+00    6.896670E-02    8.552790E-01
1.962650E+00    7.536620E-02    8.965210E-01
1.985910E+00    1.012160E-02    9.110940E-01
1.973920E+00    3.796070E-02    8.988960E-01
1.826320E+00    1.033190E-01    8.613050E-01
1.767050E+00    2.715880E-02    8.534470E-01
1.926390E+00    1.170990E-01    8.855370E-01
1.992280E+00    4.465450E-02    9.173940E-01
1.827890E+00    1.418750E-01    8.743830E-01
1.783890E+00    1.244170E-01    8.772150E-01
1.750500E+00    7.623150E-02    8.723240E-01
1.969100E+00    1.456510E-01    9.140290E-01
2.009760E+00    1.058880E-02    9.403500E-01
1.904840E+00    1.742630E-01    8.952580E-01
1.853870E+00    1.715570E-01    8.857730E-01
1.733200E+00    4.702460E-02    8.703230E-01
2.000270E+00    8.773780E-02    9.281170E-01
2.017470E+00    4.800870E-02    9.474630E-01
2.035760E+00    4.760610E-02    9.788490E-01
2.029420E+00    1.386010E-02    9.731910E-01
2.043260E+00    2.009680E-02    1.009770E+00
1.722120E+00    2.129410E-02    8.734440E-01
1.806820E+00    1.841690E-01    8.960650E-01
1.729350E+00    1.233990E-01    9.019360E-01
1.711890E+00    6.597860E-02    8.913350E-01
1.941260E+00    1.987980E-01    9.113750E-01
2.020190E+00    1.294800E-01    9.489030E-01
2.050180E+00    7.089170E-02    1.014010E+00
2.050260E+00    2.333640E-02    1.054820E+00
2.048500E+00    1.620760E-02    1.098750E+00
2.059720E+00    6.770000E-02    1.085100E+00
1.859960E+00    2.296420E-01    9.108240E-01
1.762520E+00    1.637220E-01    9.000950E-01
2.030670E+00    8.355990E-02    9.640510E-01
1.909690E+00    2.283610E-01    9.116760E-01
1.976830E+00    2.045090E-01    9.285380E-01
2.009540E+00    1.730900E-01    9.422840E-01
2.043960E+00    2.869960E-02    1.141590E+00
1.680510E+00    3.235550E-02    9.098630E-01
1.802220E+00    2.416480E-01    9.284060E-01
1.769410E+00    2.007060E-01    9.155990E-01
1.680360E+00    9.994350E-02    9.305330E-01
1.734680E+00    1.791580E-01    9.233990E-01
1.943640E+00    2.321730E-01    9.214930E-01
2.046920E+00    1.176640E-01    9.857230E-01
2.047670E+00    1.699660E-01    9.781220E-01
2.069210E+00    1.356900E-01    1.038390E+00
2.059100E+00    6.741890E-02    1.128790E+00
2.039130E+00    5.018980E-02    1.181300E+00
2.023580E+00    1.160420E-02    1.190150E+00
1.891600E+00    2.563540E-01    9.196130E-01
1.840000E+00    2.673460E-01    9.310740E-01
1.701440E+00    1.528640E-01    9.342340E-01
1.920650E+00    2.626420E-01    9.272770E-01
1.969150E+00    2.559550E-01    9.414180E-01
2.019640E+00    2.157530E-01    9.566490E-01
2.074760E+00    1.159770E-01    1.104180E+00
2.066610E+00    8.647450E-02    1.117500E+00
2.053050E+00    6.026040E-02    1.150640E+00
2.006210E+00    2.334720E-02    1.232030E+00
1.652220E+00    6.351620E-02    9.459660E-01
1.645700E+00    2.279390E-02    9.454050E-01
1.881540E+00    2.906810E-01    9.395720E-01
1.752090E+00    2.268380E-01    9.427190E-01
1.824740E+00    2.946670E-01    9.553800E-01
1.668160E+00    1.584660E-01    9.661680E-01
1.707050E+00    2.033710E-01    9.594570E-01
2.049580E+00    2.040040E-01    9.732620E-01
2.088160E+00    1.655570E-01    1.094430E+00
2.063750E+00    9.821090E-02    1.159380E+00
2.035430E+00    8.219780E-02    1.224390E+00
1.640830E+00    1.073720E-01    9.741100E-01
1.631360E+00    6.044360E-02    9.724360E-01
1.777020E+00    2.730940E-01    9.625110E-01
1.932530E+00    2.950600E-01    9.446360E-01
2.015400E+00    2.717940E-01    9.705070E-01
2.072870E+00    1.854130E-01    1.011300E+00
2.063570E+00    2.025350E-01    9.886390E-01
2.050200E+00    2.305500E-01    9.805160E-01
2.083860E+00    1.455460E-01    1.138230E+00
2.086350E+00    1.956350E-01    1.050020E+00
1.971460E+00    1.053930E-02    1.273500E+00
1.990440E+00    5.467590E-02    1.273380E+00
1.622240E+00    2.609520E-02    9.825980E-01
1.735160E+00    2.567030E-01    9.784180E-01
1.796110E+00    3.116100E-01    9.843780E-01
1.860480E+00    3.274150E-01    9.679990E-01
1.674790E+00    2.046040E-01    9.858700E-01
1.638440E+00    1.520660E-01    9.909840E-01
1.970880E+00    2.982530E-01    9.583100E-01
2.095060E+00    1.872110E-01    1.142030E+00
2.097360E+00    2.147900E-01    1.098640E+00
1.937660E+00    2.024540E-02    1.304200E+00
2.061090E+00    1.189070E-01    1.206370E+00
2.020130E+00    9.872690E-02    1.274200E+00
1.611490E+00    8.624480E-02    1.013850E+00
1.913690E+00    3.166380E-01    9.515890E-01
1.764040E+00    2.979290E-01    9.942890E-01
1.828350E+00    3.324550E-01    9.861270E-01
1.901970E+00    3.370310E-01    9.682910E-01
1.696140E+00    2.423400E-01    9.975110E-01
1.648360E+00    1.883510E-01    9.996460E-01
1.621560E+00    1.327280E-01    1.005150E+00
1.942710E+00    3.280160E-01    9.649820E-01
1.993230E+00    3.291110E-01    9.843310E-01
2.056570E+00    2.652400E-01    9.974280E-01
2.075160E+00    2.266280E-01    1.012560E+00
2.080600E+00    1.619840E-01    1.192920E+00
2.090450E+00    2.482340E-01    1.054740E+00
1.959350E+00    6.616280E-02    1.311110E+00
2.052430E+00    1.345590E-01    1.250270E+00
1.991680E+00    8.487310E-02    1.298400E+00
1.604930E+00    2.779360E-02    1.022320E+00
1.725330E+00    2.918020E-01    1.020760E+00
1.794220E+00    3.493230E-01    1.029560E+00
1.871740E+00    3.643660E-01    1.001360E+00
1.662340E+00    2.281270E-01    1.014750E+00
1.623650E+00    1.708860E-01    1.017550E+00
2.035890E+00    3.026220E-01    9.948490E-01
2.096660E+00    2.005740E-01    1.174460E+00
2.101230E+00    2.338350E-01    1.152590E+00
2.098940E+00    2.583060E-01    1.102870E+00
1.918260E+00    5.574770E-02    1.327180E+00
2.031320E+00    1.288330E-01    1.291740E+00
2.005860E+00    1.122580E-01    1.309730E+00
1.605300E+00    1.445270E-01    1.034850E+00
1.592270E+00    7.199050E-02    1.065230E+00
1.946140E+00    3.724730E-01    9.998320E-01
1.681230E+00    2.657950E-01    1.031630E+00
1.633290E+00    2.116990E-01    1.032010E+00
2.038020E+00    3.451680E-01    1.017000E+00
2.066520E+00    2.979780E-01    1.022430E+00
2.078250E+00    2.628050E-01    1.022240E+00
2.093890E+00    2.174250E-01    1.206960E+00
2.085860E+00    3.032740E-01    1.072420E+00
1.907020E+00    -2.059640E-04    1.315960E+00
1.886430E+00    2.236840E-02    1.324000E+00
1.936350E+00    8.817530E-02    1.339130E+00
1.973430E+00    9.830320E-02    1.326330E+00
2.072810E+00    1.932950E-01    1.262250E+00
2.046360E+00    1.609400E-01    1.298230E+00
1.593180E+00    1.193330E-01    1.055580E+00
1.595780E+00    1.971090E-02    1.053950E+00
1.720840E+00    3.275650E-01    1.064640E+00
1.860400E+00    3.982930E-01    1.039760E+00
1.911860E+00    4.095000E-01    1.034020E+00
1.694060E+00    2.952030E-01    1.050530E+00
1.649980E+00    2.514540E-01    1.047940E+00
1.608090E+00    1.903540E-01    1.051110E+00
1.999110E+00    3.708690E-01    1.007160E+00
2.084110E+00    2.778730E-01    1.039650E+00
2.099630E+00    2.905360E-01    1.142680E+00
1.891330E+00    5.459580E-02    1.334730E+00
1.891430E+00    8.535750E-02    1.350240E+00
2.019350E+00    1.428100E-01    1.324580E+00
1.987720E+00    1.281980E-01    1.342910E+00
1.589660E+00    1.631670E-01    1.072390E+00
1.591340E+00    3.295270E-02    1.091870E+00
1.581230E+00    1.289330E-01    1.095670E+00
1.752860E+00    3.850400E-01    1.106600E+00
1.831330E+00    4.150450E-01    1.077580E+00
1.962470E+00    4.175580E-01    1.041130E+00
1.668710E+00    2.807480E-01    1.058300E+00
1.620170E+00    2.349160E-01    1.068030E+00
1.985430E+00    3.964400E-01    1.021960E+00
2.020010E+00    3.748820E-01    1.017120E+00
2.067290E+00    3.273220E-01    1.036980E+00
2.100800E+00    2.653100E-01    1.199520E+00
2.090180E+00    2.471490E-01    1.253200E+00
2.091470E+00    3.244880E-01    1.118390E+00
1.864350E+00    5.567090E-02    1.338010E+00
1.919310E+00    1.106580E-01    1.362670E+00
1.951780E+00    1.184000E-01    1.356680E+00
2.055400E+00    1.952220E-01    1.314080E+00
2.031850E+00    1.759990E-01    1.339130E+00
1.583330E+00    8.982980E-02    1.123690E+00
1.680950E+00    3.044000E-01    1.073500E+00
1.682390E+00    3.304580E-01    1.105030E+00
1.888600E+00    4.362060E-01    1.069200E+00
1.937280E+00    4.458350E-01    1.071800E+00
1.646250E+00    2.818000E-01    1.084800E+00
1.593150E+00    2.105150E-01    1.089780E+00
2.009250E+00    3.905910E-01    1.023920E+00
2.030480E+00    3.822990E-01    1.035740E+00
2.060600E+00    3.453190E-01    1.035840E+00
1.828930E+00    5.992080E-02    1.339380E+00
1.835500E+00    2.639640E-02    1.327770E+00
1.787900E+00    4.060310E-02    1.326240E+00
2.070400E+00    2.367100E-01    1.309880E+00
2.101160E+00    3.047480E-01    1.193620E+00
2.091560E+00    3.406710E-01    1.165850E+00
2.072660E+00    3.608560E-01    1.101110E+00
1.893330E+00    1.201730E-01    1.374950E+00
2.001460E+00    1.591620E-01    1.360100E+00
1.966930E+00    1.477500E-01    1.375310E+00
1.575700E+00    1.809320E-01    1.115600E+00
1.596090E+00    4.171260E-02    1.143900E+00
1.570480E+00    1.474190E-01    1.147990E+00
1.816470E+00    4.467220E-01    1.127770E+00
1.671180E+00    3.698050E-01    1.167360E+00
1.868370E+00    4.584120E-01    1.105440E+00
2.008580E+00    4.134080E-01    1.055380E+00
1.981730E+00    4.457970E-01    1.083460E+00
1.606840E+00    2.573160E-01    1.108060E+00
2.055210E+00    3.627990E-01    1.049500E+00
2.071380E+00    3.409080E-01    1.055710E+00
1.807200E+00    9.116200E-02    1.353600E+00
1.735510E+00    3.662640E-02    1.307220E+00
1.757060E+00    8.266800E-02    1.335880E+00
2.096920E+00    2.951360E-01    1.244300E+00
2.087080E+00    2.732080E-01    1.286540E+00
1.847190E+00    8.574480E-02    1.353020E+00
1.859640E+00    1.144100E-01    1.372130E+00
1.923610E+00    1.444540E-01    1.389160E+00
2.043210E+00    2.131460E-01    1.350950E+00
2.013660E+00    1.928430E-01    1.376450E+00
1.588740E+00    9.296800E-02    1.169210E+00
1.577720E+00    1.148970E-01    1.155090E+00
1.752910E+00    4.433720E-01    1.180050E+00
1.629950E+00    3.059790E-01    1.133040E+00
1.913660E+00    4.703360E-01    1.105080E+00
1.958190E+00    4.743310E-01    1.116890E+00
1.578920E+00    2.308120E-01    1.132680E+00
2.044210E+00    3.928170E-01    1.071570E+00
1.700100E+00    8.148550E-02    1.307560E+00
2.074290E+00    2.822900E-01    1.326100E+00
2.097450E+00    3.290850E-01    1.216530E+00
2.064070E+00    4.074220E-01    1.181440E+00
1.875960E+00    1.465480E-01    1.397290E+00
2.051830E+00    2.546190E-01    1.361880E+00
1.981270E+00    1.771380E-01    1.392950E+00
1.952080E+00    1.669930E-01    1.401070E+00
1.608850E+00    6.834040E-02    1.196620E+00
1.612000E+00    2.704720E-02    1.179240E+00
1.561810E+00    2.021250E-01    1.165360E+00
1.577990E+00    1.315660E-01    1.182450E+00
1.858340E+00    4.795150E-01    1.138210E+00
1.827190E+00    4.856230E-01    1.170120E+00
1.596200E+00    3.159710E-01    1.190890E+00
1.679550E+00    4.215930E-01    1.222550E+00
1.891450E+00    4.864720E-01    1.131390E+00
2.013960E+00    4.386420E-01    1.096750E+00
2.002890E+00    4.645760E-01    1.134470E+00
1.592090E+00    2.740690E-01    1.147420E+00
1.634920E+00    4.133000E-02    1.224270E+00
1.670560E+00    3.573540E-02    1.262660E+00
1.656990E+00    7.685720E-02    1.269180E+00
1.700320E+00    2.779210E-02    1.284690E+00
1.776500E+00    1.207420E-01    1.366600E+00
1.833060E+00    1.079760E-01    1.366850E+00
1.733660E+00    1.253860E-01    1.355280E+00
2.088280E+00    3.033780E-01    1.290110E+00
2.089710E+00    3.393520E-01    1.264750E+00
2.088300E+00    3.618700E-01    1.215590E+00
2.052690E+00    4.050690E-01    1.112940E+00
1.822560E+00    1.397590E-01    1.390060E+00
1.901330E+00    1.721730E-01    1.418060E+00
2.023710E+00    2.301350E-01    1.391680E+00
1.991120E+00    2.106970E-01    1.411880E+00
1.930330E+00    1.763410E-01    1.416790E+00
1.561580E+00    1.733640E-01    1.171730E+00
1.597460E+00    1.142140E-01    1.213480E+00
1.567150E+00    1.597830E-01    1.184110E+00
1.799480E+00    5.047500E-01    1.218070E+00
1.613910E+00    3.776900E-01    1.239860E+00
1.722020E+00    4.796850E-01    1.256070E+00
1.928350E+00    5.025770E-01    1.153430E+00
2.033000E+00    4.195280E-01    1.091080E+00
1.976290E+00    4.977220E-01    1.167250E+00
1.566880E+00    2.558540E-01    1.181140E+00
1.626240E+00    9.464380E-02    1.244700E+00
1.691810E+00    1.359310E-01    1.340770E+00
2.054630E+00    3.010580E-01    1.375150E+00
2.077010E+00    3.245470E-01    1.322780E+00
2.078800E+00    3.877250E-01    1.253930E+00
2.035470E+00    4.343800E-01    1.129960E+00
1.861880E+00    1.868530E-01    1.434690E+00
2.030990E+00    2.684130E-01    1.405500E+00
1.956670E+00    1.936420E-01    1.420950E+00
1.560930E+00    1.859020E-01    1.195810E+00
1.579190E+00    1.636270E-01    1.227520E+00
1.879750E+00    5.083000E-01    1.168420E+00
1.848770E+00    5.186560E-01    1.198120E+00
1.563800E+00    3.314590E-01    1.250410E+00
1.644160E+00    4.329570E-01    1.275340E+00
2.009920E+00    4.845370E-01    1.185210E+00
1.554780E+00    2.291420E-01    1.191270E+00
1.648310E+00    1.317680E-01    1.300730E+00
1.765550E+00    1.639470E-01    1.400340E+00
1.711510E+00    1.676040E-01    1.381730E+00
2.062920E+00    4.299920E-01    1.255670E+00
2.031860E+00    4.559760E-01    1.172580E+00
1.810140E+00    1.838700E-01    1.429650E+00
1.918410E+00    2.059870E-01    1.444490E+00
2.000320E+00    2.486480E-01    1.430780E+00
1.962950E+00    2.295390E-01    1.445350E+00
1.554490E+00    2.133750E-01    1.200610E+00
1.609850E+00    1.370050E-01    1.257090E+00
1.851320E+00    5.477270E-01    1.236620E+00
1.790140E+00    5.435220E-01    1.274040E+00
1.558300E+00    2.905600E-01    1.227500E+00
1.565930E+00    3.650960E-01    1.291000E+00
1.663140E+00    4.836060E-01    1.324160E+00
1.596470E+00    4.013440E-01    1.290250E+00
1.953970E+00    5.288260E-01    1.202710E+00
1.914060E+00    5.334100E-01    1.196530E+00
1.993260E+00    5.141800E-01    1.219020E+00
1.554080E+00    2.449280E-01    1.225900E+00
1.664090E+00    1.743840E-01    1.357520E+00
2.076140E+00    3.686830E-01    1.310030E+00
2.059960E+00    3.500820E-01    1.366210E+00
2.032430E+00    2.983140E-01    1.419040E+00
2.033270E+00    4.759900E-01    1.237730E+00
2.068520E+00    4.122320E-01    1.302650E+00
1.828130E+00    2.191900E-01    1.470920E+00
1.883110E+00    2.385290E-01    1.486130E+00
2.010510E+00    2.827490E-01    1.442580E+00
1.561210E+00    2.060230E-01    1.232230E+00
1.880030E+00    5.354750E-01    1.204520E+00
1.728690E+00    5.238950E-01    1.305090E+00
1.548140E+00    3.070470E-01    1.255110E+00
1.549320E+00    3.390570E-01    1.280420E+00
1.604920E+00    4.322930E-01    1.326130E+00
1.601850E+00    1.829840E-01    1.294730E+00
1.731260E+00    2.011720E-01    1.429370E+00
1.778720E+00    2.078230E-01    1.452400E+00
1.634530E+00    1.731460E-01    1.328210E+00
1.683140E+00    2.053460E-01    1.408480E+00
2.038340E+00    3.303490E-01    1.414520E+00
2.050910E+00    4.586120E-01    1.310160E+00
1.932230E+00    2.462620E-01    1.475750E+00
1.972690E+00    2.769310E-01    1.473960E+00
1.573950E+00    1.962530E-01    1.260430E+00
1.899640E+00    5.568370E-01    1.230290E+00
1.848380E+00    5.833670E-01    1.279320E+00
1.764120E+00    5.689720E-01    1.322270E+00
1.543820E+00    3.187730E-01    1.277130E+00
1.543950E+00    3.375400E-01    1.307410E+00
1.573060E+00    3.967800E-01    1.325000E+00
1.605940E+00    4.635540E-01    1.376350E+00
1.705030E+00    5.437480E-01    1.352420E+00
1.933770E+00    5.534430E-01    1.229070E+00
1.967380E+00    5.561760E-01    1.258370E+00
2.005100E+00    5.263690E-01    1.268070E+00
1.546710E+00    2.845060E-01    1.270600E+00
1.625410E+00    2.051690E-01    1.357200E+00
1.653490E+00    2.037260E-01    1.383820E+00
2.061060E+00    3.937440E-01    1.352880E+00
2.034570E+00    3.801870E-01    1.419350E+00
2.016640E+00    3.115430E-01    1.447850E+00
2.025010E+00    5.140340E-01    1.318350E+00
2.058560E+00    4.281820E-01    1.341620E+00
1.796190E+00    2.422080E-01    1.501500E+00
1.841890E+00    2.558950E-01    1.517740E+00
1.920530E+00    2.830580E-01    1.515840E+00
1.999250E+00    2.974840E-01    1.464480E+00
1.565010E+00    2.351760E-01    1.286650E+00
1.885000E+00    5.767680E-01    1.258790E+00
1.811510E+00    5.888470E-01    1.305170E+00
1.551320E+00    3.676600E-01    1.350810E+00
1.646270E+00    5.122260E-01    1.383610E+00
1.570830E+00    4.168050E-01    1.371760E+00
1.704910E+00    2.264540E-01    1.451890E+00
1.744110E+00    2.365430E-01    1.483940E+00
1.640930E+00    2.313670E-01    1.411460E+00
2.017850E+00    3.414790E-01    1.450920E+00
2.038720E+00    4.874170E-01    1.357690E+00
2.045940E+00    4.521750E-01    1.368170E+00
1.878210E+00    2.743560E-01    1.530560E+00
1.990590E+00    3.217110E-01    1.482160E+00
1.925640E+00    5.794330E-01    1.263330E+00
1.893490E+00    6.044970E-01    1.288890E+00
1.851430E+00    6.280880E-01    1.315350E+00
1.796180E+00    6.147700E-01    1.335140E+00
1.746300E+00    5.969710E-01    1.362410E+00
1.540210E+00    3.096790E-01    1.304160E+00
1.605250E+00    4.903130E-01    1.415870E+00
1.569100E+00    4.504910E-01    1.440560E+00
1.679110E+00    5.477440E-01    1.386900E+00
1.993650E+00    5.601030E-01    1.311250E+00
1.589760E+00    2.256910E-01    1.335610E+00
1.673860E+00    2.344880E-01    1.444800E+00
2.048260E+00    4.193450E-01    1.381780E+00
1.999800E+00    3.645220E-01    1.480420E+00
2.026780E+00    5.178580E-01    1.371380E+00
1.770890E+00    2.629900E-01    1.533080E+00
1.811390E+00    2.740530E-01    1.548200E+00
1.851490E+00    2.906940E-01    1.560370E+00
1.890490E+00    3.073110E-01    1.559620E+00
1.955630E+00    3.120620E-01    1.513020E+00
1.549080E+00    2.845700E-01    1.322880E+00
1.707970E+00    5.756870E-01    1.384270E+00
1.543090E+00    3.229930E-01    1.344730E+00
1.550010E+00    3.917950E-01    1.415780E+00
1.625530E+00    5.197070E-01    1.421730E+00
1.655080E+00    5.431580E-01    1.410230E+00
1.951500E+00    5.844860E-01    1.280400E+00
1.967350E+00    5.853530E-01    1.299510E+00
2.007590E+00    5.597240E-01    1.380530E+00
1.597450E+00    2.474960E-01    1.385690E+00
1.689700E+00    2.568360E-01    1.494600E+00
1.648100E+00    2.548240E-01    1.458400E+00
2.025620E+00    4.392520E-01    1.430800E+00
2.007480E+00    4.010440E-01    1.471450E+00
2.030800E+00    4.988180E-01    1.392410E+00
2.035240E+00    4.739550E-01    1.394720E+00
1.733850E+00    2.622700E-01    1.525380E+00
1.926510E+00    3.306560E-01    1.550510E+00
1.963540E+00    3.515160E-01    1.524700E+00
1.569060E+00    2.599590E-01    1.350710E+00
1.938830E+00    6.084710E-01    1.303840E+00
1.904530E+00    6.396780E-01    1.316700E+00
1.819300E+00    6.506290E-01    1.338920E+00
1.773730E+00    6.497900E-01    1.362640E+00
1.725790E+00    5.993860E-01    1.387260E+00
1.546770E+00    3.425440E-01    1.403590E+00
1.596710E+00    5.102960E-01    1.458040E+00
1.546390E+00    4.060280E-01    1.477360E+00
1.682560E+00    5.668490E-01    1.403620E+00
1.976750E+00    6.090160E-01    1.347920E+00
1.605660E+00    2.709570E-01    1.440350E+00
1.976850E+00    3.923870E-01    1.519570E+00
2.018490E+00    5.216520E-01    1.414460E+00
1.748940E+00    2.822350E-01    1.563750E+00
1.783670E+00    2.873840E-01    1.571650E+00
1.816660E+00    3.117490E-01    1.596530E+00
1.862970E+00    3.270160E-01    1.594920E+00
1.897400E+00    3.435760E-01    1.585250E+00
1.555800E+00    2.972960E-01    1.379750E+00
1.879570E+00    6.651280E-01    1.325810E+00
1.849480E+00    6.683350E-01    1.331830E+00
1.737170E+00    6.229060E-01    1.388030E+00
1.700040E+00    5.989760E-01    1.409810E+00
1.545190E+00    3.688090E-01    1.452050E+00
1.561280E+00    4.850840E-01    1.503950E+00
1.635060E+00    5.469150E-01    1.439940E+00
1.547630E+00    4.437210E-01    1.505430E+00
1.666380E+00    5.687870E-01    1.423190E+00
1.995670E+00    6.108860E-01    1.404410E+00
1.574270E+00    2.721030E-01    1.389770E+00
1.630120E+00    2.836950E-01    1.500330E+00
1.710110E+00    2.788420E-01    1.549680E+00
1.586270E+00    2.693650E-01    1.409540E+00
1.993210E+00    4.287380E-01    1.498440E+00
2.021700E+00    4.862610E-01    1.429950E+00
2.005690E+00    5.506660E-01    1.448660E+00
1.927460E+00    3.911040E-01    1.582120E+00
1.943990E+00    6.466900E-01    1.336660E+00
1.914980E+00    6.790250E-01    1.334170E+00
1.818710E+00    6.861850E-01    1.343390E+00
1.739730E+00    6.503610E-01    1.389350E+00
1.554090E+00    3.376880E-01    1.456840E+00
1.579910E+00    5.291720E-01    1.505130E+00
1.614010E+00    5.541400E-01    1.474020E+00
1.540780E+00    4.157580E-01    1.543200E+00
1.551740E+00    3.679020E-01    1.506460E+00
2.002890E+00    5.859210E-01    1.434630E+00
1.985790E+00    6.413070E-01    1.388790E+00
1.668910E+00    2.848410E-01    1.542320E+00
1.573990E+00    2.878140E-01    1.418040E+00
1.599510E+00    2.913700E-01    1.475740E+00
2.002320E+00    4.684670E-01    1.481310E+00
1.965390E+00    4.195550E-01    1.543310E+00
2.005440E+00    5.103990E-01    1.468230E+00
1.724490E+00    2.977940E-01    1.587310E+00
1.761540E+00    3.135360E-01    1.609570E+00
1.838310E+00    3.489000E-01    1.628870E+00
1.874750E+00    3.666610E-01    1.620020E+00
1.875050E+00    7.064630E-01    1.331500E+00
1.781190E+00    6.841370E-01    1.357170E+00
1.719680E+00    6.334080E-01    1.406280E+00
1.558170E+00    3.137250E-01    1.424140E+00
1.538740E+00    4.628570E-01    1.559020E+00
1.548980E+00    5.153260E-01    1.548870E+00
1.654920E+00    5.871000E-01    1.446290E+00
1.970320E+00    6.543490E-01    1.366750E+00
1.998610E+00    6.233750E-01    1.458060E+00
1.993900E+00    6.449710E-01    1.421500E+00
1.635590E+00    3.007810E-01    1.552890E+00
1.689340E+00    2.984740E-01    1.581290E+00
1.576490E+00    3.053290E-01    1.459140E+00
1.591530E+00    3.089000E-01    1.501440E+00
1.976340E+00    4.524710E-01    1.532570E+00
1.990700E+00    5.400410E-01    1.511820E+00
1.998250E+00    5.830250E-01    1.484070E+00
1.795270E+00    3.501500E-01    1.647150E+00
1.881980E+00    4.002650E-01    1.637980E+00
1.953680E+00    6.874800E-01    1.358680E+00
1.931210E+00    7.276870E-01    1.341360E+00
1.836310E+00    7.221310E-01    1.330100E+00
1.792130E+00    7.110800E-01    1.340000E+00
1.736330E+00    6.798140E-01    1.372830E+00
1.717910E+00    6.536640E-01    1.404440E+00
1.687850E+00    6.299330E-01    1.427280E+00
1.567620E+00    3.308450E-01    1.493620E+00
1.592870E+00    5.635580E-01    1.504850E+00
1.567610E+00    5.472480E-01    1.530290E+00
1.622260E+00    5.880220E-01    1.479390E+00
1.533140E+00    4.352100E-01    1.581080E+00
1.554140E+00    3.829340E-01    1.577810E+00
1.986800E+00    6.885070E-01    1.409500E+00
1.608060E+00    3.099070E-01    1.535610E+00
1.659330E+00    3.001600E-01    1.573410E+00
1.984420E+00    4.927650E-01    1.522050E+00
1.951910E+00    4.358410E-01    1.568870E+00
1.706390E+00    3.252750E-01    1.626760E+00
1.744780E+00    3.518050E-01    1.663070E+00
1.833750E+00    3.952600E-01    1.671690E+00
1.900770E+00    4.301970E-01    1.636390E+00
1.902590E+00    7.484810E-01    1.324600E+00
1.868890E+00    7.490190E-01    1.317850E+00
1.579010E+00    3.389400E-01    1.542770E+00
1.526920E+00    4.980900E-01    1.594900E+00
1.540820E+00    5.556600E-01    1.555500E+00
1.648150E+00    6.174240E-01    1.456810E+00
1.536820E+00    4.168930E-01    1.590980E+00
1.527920E+00    4.491810E-01    1.626590E+00
1.996910E+00    6.620900E-01    1.451380E+00
1.994390E+00    6.174650E-01    1.516090E+00
1.613110E+00    3.256760E-01    1.580080E+00
1.640970E+00    3.115330E-01    1.584320E+00
1.664940E+00    3.153820E-01    1.603830E+00
1.959050E+00    4.720170E-01    1.568080E+00
1.931850E+00    4.479020E-01    1.603280E+00
1.968360E+00    5.143630E-01    1.562740E+00
1.987490E+00    5.787740E-01    1.535870E+00
1.768470E+00    3.878900E-01    1.700010E+00
1.869870E+00    4.230360E-01    1.665100E+00
1.971550E+00    7.320740E-01    1.373120E+00
1.935190E+00    7.733140E-01    1.325790E+00
1.829940E+00    7.484880E-01    1.309780E+00
1.693010E+00    6.598210E-01    1.412040E+00
1.531450E+00    5.270490E-01    1.579150E+00
1.594690E+00    5.906330E-01    1.501400E+00
1.572360E+00    5.704310E-01    1.524860E+00
1.619060E+00    6.105760E-01    1.478650E+00
1.542410E+00    4.086360E-01    1.621710E+00
1.584380E+00    3.573450E-01    1.602980E+00
1.664150E+00    6.430400E-01    1.437370E+00
1.998620E+00    6.580140E-01    1.497220E+00
2.000630E+00    6.956320E-01    1.473840E+00
1.976250E+00    5.495140E-01    1.558430E+00
1.658520E+00    3.430180E-01    1.643520E+00
1.697780E+00    3.703740E-01    1.690340E+00
1.735150E+00    3.731690E-01    1.693980E+00
1.798070E+00    4.158590E-01    1.715270E+00
1.849500E+00    4.406830E-01    1.695720E+00
1.881120E+00    4.537580E-01    1.672110E+00
1.911470E+00    4.707440E-01    1.642550E+00
1.965130E+00    7.705670E-01    1.348630E+00
1.905970E+00    7.840470E-01    1.306780E+00
1.869920E+00    7.756450E-01    1.298890E+00
1.787240E+00    7.300180E-01    1.315960E+00
1.687520E+00    6.738960E-01    1.393440E+00
1.509340E+00    5.357150E-01    1.607380E+00
1.510340E+00    4.976050E-01    1.636470E+00
1.628090E+00    6.341710E-01    1.456350E+00
1.563170E+00    3.872600E-01    1.633090E+00
1.995440E+00    7.454080E-01    1.408610E+00
1.982180E+00    6.076470E-01    1.567540E+00
1.991620E+00    6.510610E-01    1.553450E+00
2.005130E+00    7.378830E-01    1.453340E+00
1.637900E+00    3.266310E-01    1.609130E+00
1.941430E+00    4.927020E-01    1.606060E+00
1.954870E+00    5.413160E-01    1.602970E+00
1.973920E+00    5.731920E-01    1.575980E+00
1.729750E+00    3.885640E-01    1.714260E+00
1.769150E+00    4.260330E-01    1.740460E+00
1.821250E+00    4.323650E-01    1.713840E+00
1.993350E+00    7.794830E-01    1.381320E+00
1.965460E+00    8.047970E-01    1.327230E+00
1.941850E+00    8.053370E-01    1.309980E+00
1.806470E+00    7.506640E-01    1.283260E+00
1.757110E+00    7.092640E-01    1.336110E+00
1.695330E+00    6.835630E-01    1.370410E+00
1.653280E+00    6.579380E-01    1.420510E+00
1.507700E+00    4.821170E-01    1.674930E+00
1.506480E+00    5.671780E-01    1.574240E+00
1.592460E+00    6.136900E-01    1.486410E+00
1.537480E+00    4.209320E-01    1.643640E+00
1.548580E+00    4.078730E-01    1.652240E+00
1.591480E+00    3.745250E-01    1.650720E+00
1.617840E+00    3.494220E-01    1.630790E+00
2.000990E+00    6.955370E-01    1.530950E+00
2.007960E+00    7.302900E-01    1.502800E+00
1.629770E+00    3.849820E-01    1.694450E+00
1.741220E+00    4.098890E-01    1.735970E+00
1.798290E+00    4.410980E-01    1.737220E+00
1.826570E+00    4.726010E-01    1.737640E+00
1.863260E+00    4.723530E-01    1.702240E+00
1.891530E+00    4.910810E-01    1.679540E+00
1.922900E+00    5.139990E-01    1.646390E+00
1.990830E+00    8.114090E-01    1.350610E+00
1.894550E+00    8.019040E-01    1.283310E+00
1.934910E+00    8.270270E-01    1.285570E+00
1.857620E+00    7.842450E-01    1.271630E+00
1.756710E+00    7.162170E-01    1.301410E+00
1.716020E+00    6.939460E-01    1.340460E+00
1.655300E+00    6.687940E-01    1.379920E+00
1.484020E+00    5.239790E-01    1.669370E+00
1.523900E+00    4.535910E-01    1.681210E+00
1.493880E+00    5.577430E-01    1.603790E+00
1.526140E+00    5.822440E-01    1.542140E+00
1.593350E+00    6.306590E-01    1.461320E+00
1.539400E+00    4.282190E-01    1.668600E+00
1.569970E+00    4.087410E-01    1.688440E+00
1.615160E+00    6.455810E-01    1.437610E+00
2.015980E+00    7.934620E-01    1.432450E+00
1.961890E+00    5.878670E-01    1.612770E+00
1.974270E+00    6.348800E-01    1.608800E+00
1.989720E+00    6.890980E-01    1.597660E+00
2.018030E+00    7.746120E-01    1.496770E+00
1.671460E+00    4.029930E-01    1.734470E+00
1.708900E+00    4.074150E-01    1.739590E+00
1.733920E+00    4.432620E-01    1.771740E+00
1.778790E+00    4.610650E-01    1.765730E+00
2.016080E+00    8.289940E-01    1.382680E+00
1.987860E+00    8.339860E-01    1.327130E+00
1.967970E+00    8.344960E-01    1.306800E+00
1.830740E+00    7.706970E-01    1.253840E+00
1.785160E+00    7.328490E-01    1.261940E+00
1.680840E+00    6.828560E-01    1.356410E+00
1.479880E+00    5.511090E-01    1.630670E+00
1.513870E+00    4.744060E-01    1.716870E+00
1.493440E+00    5.004130E-01    1.709600E+00
1.477260E+00    5.701100E-01    1.596130E+00
1.559630E+00    5.905320E-01    1.519350E+00
1.551400E+00    6.115940E-01    1.488410E+00
1.622030E+00    6.544200E-01    1.412090E+00
2.008860E+00    7.451680E-01    1.558930E+00
1.934350E+00    5.593390E-01    1.652230E+00
1.640330E+00    4.261000E-01    1.761940E+00
1.867900E+00    5.078900E-01    1.718150E+00
1.902800E+00    5.324080E-01    1.687400E+00
2.010560E+00    8.518290E-01    1.343990E+00
1.910240E+00    8.283500E-01    1.251150E+00
1.975390E+00    8.655820E-01    1.283160E+00
1.808380E+00    7.545900E-01    1.259600E+00
1.870910E+00    7.973710E-01    1.214860E+00
1.741450E+00    6.921440E-01    1.260700E+00
1.678510E+00    6.778270E-01    1.333380E+00